! Touchstone file from project Full PS Package Sim
! Exported from HFSS 2018.1.0
! Variables:
!  InP_thk = -0.0748mm
!  SE_cut_x = 0.3m
!  TIM_thk = 0.036
!  bond_angle = 55deg
!  bond_diam = 0.025mm
!  bond_diam_signal = 0.025
!  bond_height = 0.1mm
!  chip_trace_width = 0.007m
!  pad_edge_2_chip_extent = 74m
!  pcb_trace_width = 0.25m
!  pcb_trace_width_SE = 0.42m
!  subst_thk = 0.2mm
# GHZ S MA R 50.000000
! Terminal data exported
! Port[1] = Box78_T1
! Port[2] = SE_Trace_T1
0                0.00312408327788649 0                0.996875991509228 0                0.996875991533557 0                0.00312408117508056 0                
! Port Impedance49.9999999767169 0                0                0                0                0                49.9999999767169 0                

0.05             0.00331032509776476 2.78174457285568 0.99668897496276 -0.352540257658912 0.99668897496276 -0.352540257658912 0.00331036587104506 2.15280569718577 
! Port Impedance50               0                0                0                0                0                50               0                

0.1              0.00347604378472293 2.95985639396023 0.996515854847487 -0.696570419705508 0.99651585484748 -0.696570419706738 0.00347673683717529 1.72146684745845 
! Port Impedance50               0                0                0                0                0                50               0                

0.15             0.00362720240711438 3.15763527632952 0.996351657126763 -1.04027769407569 0.996351657126756 -1.04027769407611 0.00362429577183028 1.42232246511836 
! Port Impedance50               0                0                0                0                0                50               0                

0.2              0.00379246483561581 2.46292048247402 0.996172837603765 -1.38041016394665 0.996172837603758 -1.38041016394727 0.00378998776723858 0.283521166553731 
! Port Impedance50               0                0                0                0                0                50               0                

0.25             0.00395350705865245 1.10717741438222 0.996000989205612 -1.71759063154222 0.996000989205605 -1.71759063154234 0.0039562672996991 -1.50000729237314 
! Port Impedance50               0                0                0                0                0                50               0                

0.3              0.00410158514542334 -0.670686612077058 0.995847021780534 -2.0526516800973 0.995847021780524 -2.05265168009722 0.00411386912760616 -3.71001048882397 
! Port Impedance50               0                0                0                0                0                50               0                

0.35             0.00423439126119452 -2.68754299934205 0.995714202811692 -2.38633345713135 0.995714202811681 -2.38633345713127 0.00425955618076862 -6.16950996749644 
! Port Impedance50               0                0                0                0                0                50               0                

0.4              0.0043529298020384 -4.82085687350276 0.995601660274373 -2.71918761605094 0.995601660274365 -2.71918761605096 0.0043934814751214 -8.75427795447136 
! Port Impedance50               0                0                0                0                0                50               0                

0.45             0.00445949561256461 -6.99443165974387 0.995506804240149 -3.05158742764802 0.99550680424014 -3.05158742764743 0.0045173107100662 -11.3835707559136 
! Port Impedance50               0                0                0                0                0                50               0                

0.5              0.00455662164004853 -9.16300236920819 0.995426643103937 -3.38377066043188 0.99542664310393 -3.3837706604316 0.00463315626414738 -14.0072751170812 
! Port Impedance50               0                0                0                0                0                50               0                

0.55             0.0046466224011002 -11.3006448947919 0.995358378210514 -3.71588214092142 0.995358378210507 -3.71588214092104 0.004743063548719 -16.5953177786705 
! Port Impedance50               0                0                0                0                0                50               0                

0.6              0.00473144488630856 -13.3931199601792 0.995299612614491 -4.04800635072358 0.995299612614486 -4.0480063507233 0.00484880782280736 -19.1302554933369 
! Port Impedance50               0                0                0                0                0                50               0                

0.65             0.00481265853904154 -15.4331085908759 0.995248380153572 -4.3801898477298 0.995248380153568 -4.38018984772956 0.00495184492605951 -21.6024544804507 
! Port Impedance50               0                0                0                0                0                50               0                

0.7              0.00489149866187096 -17.4173331732875 0.995203102778112 -4.71245588592238 0.995203102778108 -4.71245588592209 0.00505332942220104 -24.0070637512436 
! Port Impedance50               0                0                0                0                0                50               0                

0.75             0.00496892377644899 -19.344844070951 0.995162526985492 -5.04481368053064 0.99516252698549 -5.04481368053029 0.00515415682862677 -26.3421468814579 
! Port Impedance50               0                0                0                0                0                50               0                

0.8              0.00504567061394137 -21.2160086342777 0.995125660918606 -5.37726418616955 0.995125660918603 -5.37726418616926 0.00525501004137112 -28.6075370247216 
! Port Impedance50               0                0                0                0                0                50               0                

0.85             0.00512230118026283 -23.0319184529308 0.995091719833956 -5.70980366368303 0.995091719833954 -5.70980366368264 0.00535640182814461 -30.8041362083247 
! Port Impedance50               0                0                0                0                0                50               0                

0.9              0.00519924097687846 -24.794044277503 0.995060081571592 -6.04242586335452 0.99506008157159 -6.04242586335417 0.00545871079961481 -32.9334856775867 
! Port Impedance50               0                0                0                0                0                50               0                

0.95             0.0052768092296842 -26.5040371629307 0.995030251269696 -6.37512334802932 0.995030251269695 -6.37512334802891 0.00556221068452072 -34.9975013175807 
! Port Impedance50               0                0                0                0                0                50               0                

1                0.0053552424852956 -28.1636156840327 0.995001833826189 -6.70788828338164 0.995001833826188 -6.70788828338138 0.00566709365836665 -36.9983097372715 
! Port Impedance50               0                0                0                0                0                50               0                

1.05             0.00543471292543311 -29.7745035722588 0.994974512554299 -7.04071289886834 0.994974512554298 -7.04071289886813 0.0057734887245749 -38.9381459296945 
! Port Impedance50               0                0                0                0                0                50               0                

1.1              0.00551534256276099 -31.3383966419035 0.994948032671694 -7.37358974583901 0.994948032671694 -7.37358974583878 0.00588147611423126 -40.8192887741363 
! Port Impedance50               0                0                0                0                0                50               0                

1.15             0.00559721425818493 -32.8569464914904 0.994922188515024 -7.7065118314435 0.994922188515025 -7.70651183144327 0.00599109853835409 -42.6440199425758 
! Port Impedance50               0                0                0                0                0                50               0                

1.2              0.00568038029489721 -34.331753592625 0.994896813609785 -8.03947267727153 0.994896813609785 -8.03947267727132 0.00610236997448197 -44.4145974022684 
! Port Impedance50               0                0                0                0                0                50               0                

1.25             0.00576486907483164 -35.7643654383963 0.994871772925411 -8.37246633319951 0.994871772925411 -8.3724663331992 0.00621528252973658 -46.133238127658 
! Port Impedance50               0                0                0                0                0                50               0                

1.3              0.00585069036913548 -37.1562772479082 0.994846956804664 -8.70548736538553 0.994846956804665 -8.70548736538526 0.00632981180495017 -47.8021067133417 
! Port Impedance50               0                0                0                0                0                50               0                

1.35             0.00593783945102714 -38.5089338099002 0.994822276179449 -9.03853083014311 0.99482227617945 -9.03853083014286 0.00644592108987244 -49.4233078464   
! Port Impedance50               0                0                0                0                0                50               0                

1.4              0.00602630036100537 -39.8237316932821 0.99479765877885 -9.37159224089367 0.994797658778852 -9.37159224089355 0.0065635646452724 -50.9988813693129 
! Port Impedance50               0                0                0                0                0                50               0                

1.45             0.00611604849509723 -41.1020214282509 0.994773046106018 -9.70466753255825 0.994773046106019 -9.70466753255805 0.00668269027009002 -52.5307991358359 
! Port Impedance50               0                0                0                0                0                50               0                

1.5              0.0062070526622805 -42.3451094794285 0.994748391013746 -10.0377530259577 0.994748391013747 -10.0377530259576 0.00680324130744718 -54.0209631501211 
! Port Impedance50               0                0                0                0                0                50               0                

1.55             0.00629927672349232 -43.5542599519903 0.994723655748745 -10.370845393679 0.994723655748747 -10.3708453936788 0.00692515820913663 -55.4712046556447 
! Port Impedance50               0                0                0                0                0                50               0                

1.6              0.00639268089925037 -44.7306960356896 0.994698810364806 -10.7039416281631 0.994698810364808 -10.703941628163 0.00704837975194837 -56.8832839482458 
! Port Impedance50               0                0                0                0                0                50               0                

1.65             0.00648722281358627 -45.8756012218942 0.994673831427884 -11.037039012353 0.994673831427885 -11.0370390123528 0.0071728439789332 -58.2588907548157 
! Port Impedance50               0                0                0                0                0                50               0                

1.7              0.006582858327262 -46.9901203391949 0.994648700953479 -11.3701350929731 0.994648700953481 -11.370135092973 0.00729848892302957 -59.5996450606591 
! Port Impedance50               0                0                0                0                0                50               0                

1.75             0.00667954220194529 -48.0753604541081 0.994623405529873 -11.7032276563719 0.994623405529874 -11.7032276563718 0.00742525315832598 -60.9070982956645 
! Port Impedance50               0                0                0                0                0                50               0                

1.8              0.00677722862833839 -49.1323916789479 0.994597935590848 -12.0363147067725 0.994597935590849 -12.0363147067723 0.00755307621476643 -62.1827348073883 
! Port Impedance50               0                0                0                0                0                50               0                

1.85             0.00687587164447713 -50.1622479217945 0.994572284809321 -12.3693944467379 0.994572284809322 -12.3693944467378 0.00768189888466617 -63.4279735612788 
! Port Impedance50               0                0                0                0                0                50               0                

1.9              0.00697542546516926 -51.1659276063555 0.99454644958925 -12.7024652596462 0.994546449589251 -12.7024652596461 0.00781166344364572 -64.6441700181488 
! Port Impedance50               0                0                0                0                0                50               0                

1.95             0.00707584473939498 -52.1443943827768 0.994520428637874 -13.0355256939681 0.994520428637875 -13.035525693968 0.00794231380392428 -65.8326181456219 
! Port Impedance50               0                0                0                0                0                50               0                

2                0.00717708474924744 -53.0985778440139 0.994494222603928 -13.3685744491536 0.99449422260393 -13.3685744491535 0.00807379561436601 -66.9945525268187 
! Port Impedance50               0                0                0                0                0                50               0                

2.05             0.0072791015613893 -54.0293742576079 0.99446783377034 -13.7016103629477 0.994467833770342 -13.7016103629475 0.00820605631872058 -68.1311505343764 
! Port Impedance50               0                0                0                0                0                50               0                

2.1              0.00738185213994397 -54.9376473184092 0.994441265792124 -14.0346323999705 0.994441265792125 -14.0346323999704 0.00833904518126611 -69.2435345426594 
! Port Impedance50               0                0                0                0                0                50               0                

2.15             0.00748529442808968 -55.8242289247838 0.994414523471967 -14.3676396414165 0.994414523471968 -14.3676396414164 0.00847271328717075 -70.3327741548088 
! Port Impedance50               0                0                0                0                0                50               0                

2.2              0.00758938740427969 -56.6899199781915 0.99438761256741 -14.700631275741 0.994387612567411 -14.700631275741 0.00860701352348416 -71.3998884251796 
! Port Impedance50               0                0                0                0                0                50               0                

2.25             0.00769409111795785 -57.5354912045375 0.994360539624615 -15.0336065902198 0.994360539624616 -15.0336065902197 0.00874190054544213 -72.445848060741 
! Port Impedance50               0                0                0                0                0                50               0                

2.3              0.00779936670873511 -58.3616839944438 0.99433331183464 -15.3665649632802 0.994333311834641 -15.3665649632802 0.00887733073185479 -73.4715775879173 
! Port Impedance50               0                0                0                0                0                50               0                

2.35             0.00790517641230174 -59.1692112586042 0.994305936908838 -15.6995058575154 0.994305936908839 -15.6995058575154 0.00901326213257047 -74.4779574740293 
! Port Impedance50               0                0                0                0                0                50               0                

2.4              0.00801148355576969 -59.958758294562 0.994278422970586 -16.0324288133041 0.994278422970587 -16.032428813304 0.00914965441041635 -75.46582619459  
! Port Impedance50               0                0                0                0                0                50               0                

2.45             0.00811825254462887 -60.730983660277 0.994250778461025 -16.3653334429664 0.994250778461027 -16.3653334429663 0.00928646877947688 -76.4359822396577 
! Port Impedance50               0                0                0                0                0                50               0                

2.5              0.00822544884315823 -61.4865200507038 0.994223012056863 -16.6982194254003 0.994223012056863 -16.6982194254002 0.00942366794124364 -77.3891860543299 
! Port Impedance50               0                0                0                0                0                50               0                

2.55             0.0083330389497749 -62.2259751732215 0.994195132598619 -17.0310865011431 0.99419513259862 -17.0310865011431 0.00956121601977746 -78.3261619096732 
! Port Impedance50               0                0                0                0                0                50               0                

2.6              0.00844099036853397 -62.9499326182375 0.994167149027942 -17.363934467816 0.994167149027943 -17.3639344678159 0.00969907849680442 -79.2475997017559 
! Port Impedance50               0                0                0                0                0                50               0                

2.65             0.00854927157780074 -63.6589527216191 0.994139070332827 -17.69676317591  0.994139070332829 -17.6967631759099 0.00983722214744994 -80.1541566774597 
! Port Impedance50               0                0                0                0                0                50               0                

2.7              0.00865785199691674 -64.3535734159009 0.994110905499768 -18.0295725248818 0.994110905499769 -18.0295725248818 0.00997561497715281 -81.0464590866605 
! Port Impedance50               0                0                0                0                0                50               0                

2.75             0.00876670195151188 -65.0343110676321 0.994082663471977 -18.3623624595269 0.994082663471978 -18.3623624595269 0.010114226160141 -81.9251037609782 
! Port Impedance50               0                0                0                0                0                50               0                

2.8              0.00887579263802944 -65.7016612985392 0.994054353112981 -18.695132966605 0.994054353112982 -18.6951329666049 0.0102530259797753 -82.7906596199542 
! Port Impedance50               0                0                0                0                0                50               0                

2.85             0.00898509608789477 -66.3560997886131 0.994025983174943 -19.0278840716947 0.994025983174944 -19.0278840716947 0.0103919857709577 -83.6436691060394 
! Port Impedance50               0                0                0                0                0                50               0                

2.9              0.00909458513167572 -66.9980830594844 0.993997562271194 -19.3606158362574 0.993997562271195 -19.3606158362574 0.0105310778647474 -84.4846495499952 
! Port Impedance50               0                0                0                0                0                50               0                

2.95             0.00920423336354761 -67.6280492368399 0.993969098852501 -19.6933283548921 0.993969098852502 -19.6933283548921 0.0106702755352526 -85.3140944687628 
! Port Impedance50               0                0                0                0                0                50               0                

3                0.00931401510623648 -68.2464187908014 0.993940601186656 -20.0260217527655 0.993940601186657 -20.0260217527655 0.0108095529488458 -86.1324747979089 
! Port Impedance50               0                0                0                0                0                50               0                

3.05             0.00942390537666521 -68.8535952535989 0.993912077341045 -20.3586961832033 0.993912077341046 -20.3586961832033 0.0109488851157026 -86.9402400610799 
! Port Impedance50               0                0                0                0                0                50               0                

3.1              0.00953387985241458 -69.4499659140085 0.993883535167873 -20.6913518254321 0.993883535167873 -20.6913518254321 0.0110882478436452 -87.7378194788425 
! Port Impedance50               0                0                0                0                0                50               0                

3.15             0.00964391483909554 -70.0359024881627 0.993854982291762 -21.0239888824581 0.993854982291764 -21.0239888824581 0.0112276176942405 -88.5256230194623 
! Port Impedance50               0                0                0                0                0                50               0                

3.2              0.00975398723871685 -70.6117617667526 0.993826426099503 -21.3566075790749 0.993826426099504 -21.3566075790749 0.0113669719411108 -89.3040423941208 
! Port Impedance50               0                0                0                0                0                50               0                

3.25             0.00986407451909261 -71.1778862384414 0.9937978737317  -21.6892081599908 0.993797873731701 -21.6892081599908 0.0115062885303643 -90.073451999126 
! Port Impedance50               0                0                0                0                0                50               0                

3.3              0.00997415468432962 -71.7346046898661 0.993769332076157 -22.0217908880684 0.993769332076157 -22.0217908880684 0.0116455460431055 -90.8342098076075 
! Port Impedance50               0                0                0                0                0                50               0                

3.35             0.0100842062464045 -72.2822327823197 0.993740807762794 -22.354356042668 0.993740807762795 -22.354356042668 0.0117847236599151 -91.586658213188 
! Port Impedance50               0                0                0                0                0                50               0                

3.4              0.0101942081978328 -72.8210736055464 0.993712307159967 -22.68690391809  0.993712307159968 -22.68690391809  0.0119238011272238 -92.3311248279599 
! Port Impedance50               0                0                0                0                0                50               0                

3.45             0.0103041399854389 -73.351418209099 0.99368383637202 -23.0194348221091 0.993683836372021 -23.0194348221091 0.0120627587255094 -93.0679232371997 
! Port Impedance50               0                0                0                0                0                50               0                

3.5              0.0104139814852062 -73.8735461117622 0.993655401237965 -23.351949074596 0.993655401237965 -23.351949074596 0.0122015772392155 -93.7973537130113 
! Port Impedance50               0                0                0                0                0                50               0                

3.55             0.0105237129781839 -74.3877257895465 0.993627007331159 -23.6844470062204 0.993627007331159 -23.6844470062204 0.0123402379283153 -94.5197038890915 
! Port Impedance50               0                0                0                0                0                50               0                

3.6              0.0106333151274419 -74.8942151429228 0.993598659959882 -24.0169289572322 0.993598659959883 -24.0169289572322 0.0124787225014367 -95.2352493987084 
! Port Impedance50               0                0                0                0                0                50               0                

3.65             0.0107427689560286 -75.3932619438726 0.993570364168711 -24.3493952763157 0.993570364168711 -24.3493952763157 0.012617013090472 -95.9442544778868 
! Port Impedance50               0                0                0                0                0                50               0                

3.7              0.0108520558259253 -75.885104263396 0.993542124740608 -24.6818463195127 0.993542124740608 -24.6818463195127 0.012755092226588 -96.6469725357272 
! Port Impedance50               0                0                0                0                0                50               0                

3.75             0.0109611574179467 -76.3699708801973 0.99351394619964 -25.0142824492125 0.99351394619964 -25.0142824492125 0.0128929428175708 -97.3436466936532 
! Port Impedance50               0                0                0                0                0                50               0                

3.8              0.0110700557125621 -76.8480816711286 0.993485832814265 -25.3467040332031 0.993485832814266 -25.3467040332031 0.0130305481264267 -98.0345102953378 
! Port Impedance50               0                0                0                0                0                50               0                

3.85             0.0111787329716088 -77.3196479841267 0.993457788601104 -25.6791114437822 0.993457788601103 -25.6791114437822 0.0131678917511695 -98.7197873889546 
! Port Impedance50               0                0                0                0                0                50               0                

3.9              0.0112871717208617 -77.7848729942705 0.993429817329143 -26.0115050569242 0.993429817329143 -26.0115050569243 0.0133049576057349 -99.3996931833024 
! Port Impedance50               0                0                0                0                0                50               0                

3.95             0.0113953547334242 -78.2439520436765 0.993401922524327 -26.3438852515008 0.993401922524327 -26.3438852515008 0.0134417299019616 -100.07443447928 
! Port Impedance50               0                0                0                0                0                50               0                

4                0.0115032650139087 -78.6970729657749 0.993374107474459 -26.6762524085513 0.993374107474459 -26.6762524085513 0.0135781931325656 -100.744210078138 
! Port Impedance50               0                0                0                0                0                50               0                

4.05             0.0116108857833791 -79.1444163947076 0.993346375234391 -27.0086069106025 0.993346375234391 -27.0086069106025 0.0137143320550714 -101.409211167785 
! Port Impedance50               0                0                0                0                0                50               0                

4.1              0.0117182004650198 -79.5861560604402 0.993318728631448 -27.3409491410332 0.993318728631448 -27.3409491410332 0.0138501316766321 -102.069621688442 
! Port Impedance50               0                0                0                0                0                50               0                

4.15             0.0118251926705054 -80.0224590701491 0.993291170271045 -27.6732794834823 0.993291170271044 -27.6732794834823 0.0139855772397006 -102.7256186788  
! Port Impedance50               0                0                0                0                0                50               0                

4.2              0.0119318461870336 -80.4534861765428 0.993263702542467 -28.0055983212986 0.993263702542466 -28.0055983212986 0.0141206542084907 -103.377372603774 
! Port Impedance50               0                0                0                0                0                50               0                

4.25             0.0120381449650049 -80.8793920336355 0.99323632762478 -28.3379060370293 0.99323632762478 -28.3379060370293 0.0142553482561991 -104.025047664961 
! Port Impedance50               0                0                0                0                0                50               0                

4.3              0.012144073106312 -81.30032544055  0.993209047492837 -28.6702030119455 0.993209047492837 -28.6702030119455 0.0143896452529342 -104.668802094733 
! Port Impedance50               0                0                0                0                0                50               0                

4.35             0.0122496148532235 -81.7164295738869 0.993181863923354 -29.0024896256038 0.993181863923353 -29.0024896256038 0.0145235312543251 -105.308788434919 
! Port Impedance50               0                0                0                0                0                50               0                

4.4              0.0123547545778221 -82.1278422091264 0.993154778501034 -29.3347662554402 0.993154778501034 -29.3347662554402 0.0146569924907543 -105.945153800955 
! Port Impedance50               0                0                0                0                0                50               0                

4.45             0.0124594767719962 -82.5346959316411 0.993127792624722 -29.6670332763965 0.993127792624721 -29.6670332763965 0.0147900153572042 -106.578040132325 
! Port Impedance50               0                0                0                0                0                50               0                

4.5              0.0125637660379359 -82.9371183377055 0.993100907513548 -29.9992910605765 0.993100907513548 -29.9992910605765 0.0149225864036652 -107.207584430071 
! Port Impedance50               0                0                0                0                0                50               0                

4.55             0.0126676070791381 -83.3352322260119 0.993074124213076 -30.3315399769303 0.993074124213075 -30.3315399769303 0.0150546923260836 -107.833918982096 
! Port Impedance50               0                0                0                0                0                50               0                

4.6              0.0127709846918836 -83.7291557801027 0.993047443601404 -30.6637803909662 0.993047443601403 -30.6637803909661 0.0151863199578216 -108.457171576965 