# Hz S DB R 50
!Touchstone multiport model file <C:\work\PySI\TestSignalIntegrity\OysterSimulation\ResampledSimbeor\TeledyneRelayOpen.s2p>
!Created on 22 Aug 18, at 17:55:44.
!Created with Simbeor THz 2018.01(64bit) of Simberian Inc. built on Jul 20 2018

!Output from MultiportParameters of Simbeor.
!Multiport parameters: DataOrigin=Simulation DataOriginName="Project(1).TeledyneRelayOpen_resampled.LNS"
!RESAMPLED_RCM: Max_RMS_Error=0.00122958; FrqLow=0; FrqHigh=4e+10; MaxTimeResolution=1.25e-11; PassivityState=1; ReciprocityState=1; DataSource="pÔS´n"
!RATIONAL COMPACTOR: Precision: Normal; Extract Delay: ON; Extrapolate to DC: ON; Extrapolate to Infinity: OFF; Enforce Passivity: ON; Enforce Reciprocity: ON; Band Limit Factor: 1; Auto-Adjust Config: OFF

!Uncomment the following lines with keywords in square brakets to support IBIS forum specification 2.0.
![Version] 2.0 !This line should be the first in file, preceeding the line starting with #.
![Number of Ports] 2
![Number of Frequencies] 8001
![Two-Port Data Order] 21_12
![Reference] 50 50

!!!!Multiport descriptor profile: InputCount=2 TotalPortCount=2
!DescriptorOutline={DescriptorType=SMatrix InputSpace=Terminal NormalizationType=CommonZo NormalizationCommonZo=50 Ohm OutputFormat=DBMagnitudeAngle}
!InputProfile={Name="IO1" IsTLineInput=False InputNumber=1 PortCount=1 FirstPortNumber=1 InputSpace=Terminal BlockType=SBlock NormalizationType=CommonZo Zo=50}
!InputProfile={Name="IO2" IsTLineInput=False InputNumber=2 PortCount=1 FirstPortNumber=2 InputSpace=Terminal BlockType=SBlock NormalizationType=CommonZo Zo=50}

!!!Global port number to input_name/local_port_number correspondence:
!Port 1 -> "IO1"/local_port_1 (terminal)
!Port 2 -> "IO2"/local_port_1 (terminal)
!!!!End of descriptor profile.

!Frequency Hz 20.0*log(|S[1,1]|) arg(S[1,1]) 20.0*log(|S[2,1]|) arg(S[2,1]) 20.0*log(|S[1,2]|) arg(S[1,2]) 20.0*log(|S[2,2]|) arg(S[2,2])
 0 -0.0517917177741971 0 -98.1852064966529 180 -98.1852064966529 180 -52.0807745186551 0
 10000000 -0.0518058409070041 -0.886028430476917 -98.1862036148549 176.730008840913 -98.1862036148549 176.730008840913 -52.0774646763882 -0.196070357149582
 20000000 -0.0518480891733938 -1.77202872786354 -98.1892025261454 173.458626234246 -98.1892025261454 173.458626234246 -52.0675675287325 -0.396279602494179
 30000000 -0.0519180994709672 -2.65797275751379 -98.194225961986 170.184459320878 -98.194225961986 170.184459320878 -52.0511794607434 -0.604708016074457
 40000000 -0.0520152675540695 -3.54383237710119 -98.2013120130887 166.90611247625 -98.2013120130887 166.90611247625 -52.0284586415634 -0.825320639086239
 50000000 -0.0521387492280084 -4.42957942123431 -98.2105144377075 163.622186073024 -98.2105144377075 163.622186073024 -51.999621436298 -1.0619144754854
 60000000 -0.0522874616168281 -5.31518567189973 -98.2219030949577 160.331275421817 -98.2219030949577 160.331275421817 -51.9649376144278 -1.31807114760668
 70000000 -0.0524600840585775 -6.20062280947637 -98.2355645047653 157.031969955331 -98.2355645047653 157.031969955331 -51.9247245649166 -1.59711630626659
 80000000 -0.0526550579922189 -7.08586233865123 -98.2516025363617 153.722852726322 -98.2516025363617 153.722852726322 -51.8793407600593 -1.90208671613783
 90000000 -0.0528705849597956 -7.97087548307292 -98.2701392274083 150.402500296163 -98.2701392274083 150.402500296163 -51.8291787255266 -2.23570553211439
 100000000 -0.0531046215373884 -8.85563304206507 -98.2913157358826 147.069483098221 -98.2913157358826 147.069483098221 -51.7746577731436 -2.60036588416312
 110000000 -0.0533548696089495 -9.74010520221398 -98.3152934266881 143.722366368827 -98.3152934266881 143.722366368827 -51.7162167377736 -2.9981225249591
 120000000 -0.053618759878181 -10.6242612962506 -98.3422550945615 140.359711748167 -98.3422550945615 140.359711748167 -51.6543069328939 -3.4306909877924
 130000000 -0.0538934258370486 -11.5080695014552 -98.3724063241997 136.980079663649 -98.3724063241997 136.980079663649 -51.5893855046755 -3.89945346528529
 140000000 -0.0541756645268216 -12.3914964700618 -98.4059769875504 133.582032619169 -98.4059769875504 133.582032619169 -51.5219093250521 -4.40547045775926
 150000000 -0.0544618792688425 -13.2745068851213 -98.443222876879 130.164139524633 -98.443222876879 130.164139524633 -51.4523295238386 -4.94949715191074
 160000000 -0.0547479980196181 -14.1570629375397 -98.4844274704884 126.724981210821 -98.4844274704884 126.724981210821 -51.3810867210938 -5.53200346849532
 170000000 -0.0550293590036183 -15.0391237244046 -98.5299038257974 123.263157284378 -98.5299038257974 123.263157284378 -51.3086069858849 -6.15319675099782
 180000000 -0.0553005526510509 -15.9206445766085 -98.5799965918503 119.777294485862 -98.5799965918503 119.777294485862 -51.2352985176541 -6.8130461428575
 190000000 -0.0555552054478026 -16.8015763374446 -98.6350841302341 116.266056719101 -98.6350841302341 116.266056719101 -51.161549022289 -7.51130780564578
 200000000 -0.0557856869092889 -17.6818646368294 -98.6955807298526 112.728156921673 -98.6955807298526 112.728156921674 -51.0877237368893 -8.24755025238564
 210000000 -0.0559827153827884 -18.5614492437757 -98.7619388971443 109.162370942528 -98.7619388971443 109.162370942528 -51.0141640447196 -9.02117919847654
 220000000 -0.0561348317783715 -19.440263641568 -98.8346516992432 105.567553582114 -98.8346516992432 105.567553582114 -50.9411866144254 -9.8314614591634
 230000000 -0.0562277030494447 -20.318235069363 -98.9142551335586 101.942656931095 -98.9142551335586 101.942656931095 -50.8690829943851 -10.677547540907
 240000000 -0.0562432106143154 -21.195285430976 -99.0013304935964 98.2867511139572 -99.0013304935964 98.2867511139572 -50.7981195932692 -11.5584926804449
 250000000 -0.0561582761184226 -22.0713337152217 -99.0965066981047 94.5990475019228 -99.0965066981047 94.5990475019228 -50.728537980673 -12.4732761774587
 260000000 -0.0559433848164623 -22.9463009399081 -99.2004625494217 90.8789244041724 -99.2004625494217 90.8789244041724 -50.6605554462308 -13.4208189437539
 270000000 -0.0555607989285949 -23.8201191638054 -99.3139288881637 87.1259551766945 -99.3139288881637 87.1259551766945 -50.594365761356 -14.3999992540397
 280000000 -0.0549625346235042 -24.69274682869 -99.4376906161603 83.3399386045184 -99.4376906161603 83.3399386045184 -50.5301400940573 -15.4096667317169
 290000000 -0.0540883494938699 -25.5641935392039 -99.5725885691712 79.5209313175722 -99.5725885691712 79.5209313175722 -50.4680280337676 -16.4486546389966
 300000000 -0.052864317044523 -26.4345580903909 -99.7195212369615 75.6692818968752 -99.7195212369615 75.6692818968752 -50.4081586895007 -17.5157905660119
 310000000 -0.0512031274368249 -27.3040833673739 -99.8794463524975 71.7856662233222 -99.8794463524975 71.7856662233222 -50.3506418306421 -18.6099056298662
 320000000 -0.0490080846974772 -28.1732290623938 -100.053382406306 67.8711235260234 -100.053382406306 67.8711235260234 -50.2955690451854 -19.7298423037076
 330000000 -0.046183710878265 -29.0427552190158 -100.242410188404 63.9270925154336 -100.242410188404 63.9270925154336 -50.2430148951774 -20.8744609993373
 340000000 -0.0426562621242359 -29.9137931859453 -100.447674520743 59.9554469572185 -100.447674520743 59.9554469572185 -50.1930380534499 -22.0426455259451
 350000000 -0.0384058201726591 -30.7878555253301 -100.670386419869 55.9585300792292 -100.670386419869 55.9585300792292 -50.1456824094787 -23.2333075435735
 360000000 -0.0335058783084387 -31.6667140102184 -100.911826024651 51.9391873347043 -100.911826024651 51.9391873347043 -50.1009781353407 -24.445390123578
 370000000 -0.028155996476672 -32.5520858825871 -101.173346739736 47.9007973029452 -101.173346739736 47.9007973029452 -50.0589427054409 -25.6778705208972
 380000000 -0.0226835360551345 -33.4451514973749 -101.45638118485 43.8473009331047 -101.45638118485 43.8473009331047 -50.0195818658088 -26.9297622543858
 390000000 -0.0174943526789164 -34.3460730916598 -101.762449707304 39.7832299724965 -101.762449707304 39.7832299724965 -49.9828905505567 -28.2001165828854
 400000000 -0.0129784298017089 -35.2537832558736 -102.093172416846 35.7137363240157 -102.093172416846 35.7137363240157 -49.9488537444902 -29.4880234559946
 410000000 -0.00941058269874926 -36.1662164039903 -102.450285949201 31.6446253208575 -102.450285949201 31.6446253208575 -49.9174472919649 -30.7926120101894
 420000000 -0.00689547249731951 -37.0808875144287 -102.835666475272 27.5823975959799 -102.835666475272 27.5823975959799 -49.888638652922 -32.1130506729945
 430000000 -0.00537712851696386 -37.9955144323029 -103.25136087608 23.5343065209393 -103.25136087608 23.5343065209393 -49.8623876076887 -33.4485469306664
 440000000 -0.00469356043419049 -38.9084151438298 -103.699628545095 19.5084413570218 -103.699628545095 19.5084413570218 -49.8386469125747 -34.7983468080851
 450000000 -0.00464079729656701 -39.8186083987406 -104.182997031885 15.5138507420072 -104.182997031885 15.5138507420072 -49.8173629086294 -36.1617341035275
 460000000 -0.00502113002300037 -40.7257070818155 -104.704335816149 11.5607276794936 -104.704335816149 11.5607276794936 -49.7984760861347 -37.5380294155638
 470000000 -0.00566864152380522 -41.6297329183146 -105.266954074086 7.66068710186484 -105.266954074086 7.66068710186484 -49.7819216075494 -38.9265889945831
 480000000 -0.00645674193644789 -42.5309411142907 -105.874730643459 3.82718262037619 -105.874730643459 3.8271826203762 -49.7676297916585 -40.3268034471386
 490000000 -0.00729543477899086 -43.429690934413 -106.532287943694 0.0761343362302917 -106.532287943694 0.0761343362302938 -49.7555265617109 -41.7380963176709
 500000000 -0.00812444487564664 -44.3263645317999 -107.24522705812 -3.57311793418354 -107.24522705812 -3.57311793418354 -49.7455338602997 -43.1599225690177
 510000000 -0.00890576239499214 -45.2213228913354 -108.020449660609 -7.09634773458018 -108.020449660609 -7.09634773458018 -49.7375700336747 -44.591766980282
 520000000 -0.00961717977083453 -46.1148860098286 -108.86660578056 -10.4621396486666 -108.86660578056 -10.4621396486666 -49.7315501881087 -46.0331424783193
 530000000 -0.0102472633509863 -47.0073271533465 -109.794727393886 -13.6281794505958 -109.794727393886 -13.6281794505958 -49.7273865208558 -47.4835884171418
 540000000 -0.0107916794606376 -47.8988744241668 -110.81914056374 -16.535073267409 -110.81914056374 -16.535073267409 -49.724988628131 -48.942668817779
 550000000 -0.0112506164103067 -48.78971558262 -111.958797249142 -19.095619305491 -111.958797249142 -19.095619305491 -49.7242637924544 -50.4099705798356
 560000000 -0.0116270261013701 -49.680003892451 -113.239226368016 -21.1752478280556 -113.239226368016 -21.1752478280556 -49.7251172515733 -51.8851016746561
 570000000 -0.0119254508411197 -50.5698638677367 -114.6953100601 -22.5542334149962 -114.6953100601 -22.5542334149962 -49.7274524510974 -53.3676893292987
 580000000 -0.0121512558829201 -51.4593964278757 -116.374698895668 -22.8497209985964 -116.374698895668 -22.8497209985964 -49.7311712828414 -54.8573782094811
 590000000 -0.0123101376709755 -52.3486833008471 -118.339117935526 -21.343544983982 -118.339117935526 -21.343544983982 -49.73617431078 -56.3538286092801
 600000000 -0.0124078166740576 -53.2377906790294 -120.646920071991 -16.5863086961656 -120.646920071991 -16.5863086961656 -49.7423609864034 -57.8567146547869
 610000000 -0.0124498522843211 -54.1267722032397 -123.230350728991 -5.60536962252582 -123.230350728991 -5.60536962252581 -49.7496298551362 -59.3657225285437
 620000000 -0.0124415374694981 -55.0156713739545 -125.373902776508 15.8834454531334 -125.373902776508 15.8834454531334 -49.7578787553905 -60.8805487214483
 630000000 -0.0123878448257896 -55.9045234886865 -125.388490403477 44.1655226026931 -125.388490403477 44.1655226026931 -49.7670050116844 -62.400898318515
 640000000 -0.0122934051770073 -56.7933571944941 -123.414873306768 64.6639285995018 -123.414873306768 64.6639285995018 -49.7769056231499 -63.9264833248066
 650000000 -0.0121625062683585 -57.6821957313474 -121.119723503882 75.0623963090778 -121.119723503882 75.0623963090778 -49.7874774486328 -65.457021037865
 660000000 -0.0119991033912231 -58.5710579287984 -119.11909928648 79.6974300106341 -119.11909928648 79.6974300106341 -49.7986173894515 -66.9922324727991
 670000000 -0.0118068366352271 -59.459959006502 -117.455097342577 81.3577112187896 -117.455097342577 81.3577112187896 -49.8102225707566 -68.5318408462791
 680000000 -0.0115890513627133 -60.348911219033 -116.065911874087 81.3947521610792 -116.065911874087 81.3947521610792 -49.8221905223039 -70.0755701256631
 690000000 -0.0113488197582773 -61.2379243771552 -114.890123456869 80.4810090313573 -114.890123456869 80.4810090313574 -49.8344193593013 -71.6231436494097
 700000000 -0.0110889621342817 -62.1270062710167 -113.880612710629 78.9761581083979 -113.880612710629 78.9761581083979 -49.846807963863 -73.1742828250016
 710000000 -0.0108120672162873 -63.0161630154399 -113.002743165892 77.0864753012003 -113.002743165892 77.0864753012003 -49.8592561674434 -74.7287059103874
 720000000 -0.0105205109854357 -63.9053993332757 -112.230968895504 74.937454706564 -112.230968895504 74.937454706564 -49.8716649344872 -76.2861268849934
 730000000 -0.0102164738819377 -64.7947187895047 -111.546147287842 72.6092385372372 -111.546147287842 72.6092385372372 -49.8839365473708 -77.8462544160635
 740000000 -0.0099019563185159 -65.6841239861798 -110.933663000303 70.1550765873091 -110.933663000303 70.1550765873091 -49.8959747925641 -79.4087909259316
 750000000 -0.00957879254196767 -66.5736167262863 -110.382150261909 67.6115177496577 -110.382150261909 67.6115177496577 -49.907685147788 -80.9734317654263
 760000000 -0.00924866293622514 -67.4631981530142 -109.882618829377 65.0043255419768 -109.882618829377 65.0043255419768 -49.9189749697934 -82.5398644983667
 770000000 -0.00891310489183685 -68.3528688696967 -109.427847451414 62.3520628588135 -109.427847451414 62.3520628588135 -49.9297536822434 -84.1077683014324
 780000000 -0.00857352238585737 -69.2426290446992 -109.01195554666 59.6683466659732 -109.01195554666 59.6683466659732 -49.9399329630388 -85.6768134833186
 790000000 -0.00823119442597332 -70.1324785047797 -108.630095243575 56.9633127198606 -108.630095243575 56.9633127198606 -49.9494269302972 -87.2466611262599
 800000000 -0.00788728252005024 -71.0224168198394 -108.278226074684 54.2445943486658 -108.278226074684 54.2445943486657 -49.9581523260732 -88.8169628523613
 810000000 -0.00754283733652599 -71.9124433815081 -107.952947420874 51.5179929409381 -107.952947420874 51.5179929409381 -49.9660286968002 -90.3873607162965
 820000000 -0.0071988047280924 -72.802557477621 -107.651371994015 48.7879474170802 -107.651371994015 48.7879474170802 -49.972978569339 -91.9574872250117
 830000000 -0.00685603129778961 -73.692758364338 -107.371028956016 46.0578693955354 -107.371028956016 46.0578693955354 -49.9789276214413 -93.5269654840628
 840000000 -0.00651526969817359 -74.5830453373867 -107.109788766857 43.3303866448182 -107.109788766857 43.3303866448182 -49.9838048453787 -95.0954094692255
 850000000 -0.0061771838678592 -75.4734178036831 -106.865804190584 40.6075226639497 -106.865804190584 40.6075226639497 -49.9875427034509 -96.6624244208352
 860000000 -0.00584235442832288 -76.3638753543587 -106.637463475558 37.8908309859559 -106.637463475558 37.8908309859559 -49.990077274069 -98.2276073572233
 870000000 -0.00551128448493268 -77.2544178400084 -106.423352820028 35.1814968662131 -106.423352820028 35.1814968662131 -49.9913483871189 -99.7905477025309
 880000000 -0.00518440610343667 -78.1450454487246 -106.222226000412 32.4804151315012 -106.222226000412 32.4804151315012 -49.991299747343 -101.350828022909
 890000000 -0.00486208776142845 -79.0357587872082 -106.032979583378 29.7882503714307 -106.032979583378 29.7882503714307 -49.9898790445283 -102.908024864184
 900000000 -0.00454464310627991 -79.9265589649138 -105.854632533762 27.1054838918858 -105.854632533762 27.1054838918858 -49.9870380493722 -104.461709682866
 910000000 -0.00423234138318213 -80.8174476807738 -105.686309314817 24.4324506335283 -105.686309314817 24.4324506335283 -49.9827326939981 -106.01144986149
 920000000 -0.00392541992655545 -81.7084273115463 -105.527225786688 21.7693684062873 -105.527225786688 21.7693684062872 -49.9769231362085 -107.5568097984
 930000000 -0.00362409913278216 -82.5995010002098 -105.376677364851 19.1163611854034 -105.376677364851 19.1163611854034 -49.969573806716 -109.097352061203
 940000000 -0.00332860034416406 -83.4906727420824 -105.234029017394 16.473477779135 -105.234029017394 16.473477779135 -49.9606534387372 -110.632638592631
 950000000 -0.00303916706946441 -84.3819474654458 -105.09870676891 13.8407068611888 -105.09870676891 13.8407068611888 -49.9501350795157 -112.16223195694
 960000000 -0.00275608993362995 -85.273331102421 -104.970190446873 11.217989127694 -104.970190446873 11.217989127694 -49.9379960835173 -113.685696614671
 970000000 -0.00247973567890695 -86.1648306446675 -104.848007458931 8.60522716487682 -104.848007458931 8.6052271648768 -49.9242180872301 -115.202600213418
 980000000 -0.00221058041941623 -87.0564541772111 -104.731727430501 6.00229348343906 -104.731727430501 6.00229348343907 -49.9087869656955 -116.71251488222
 990000000 -0.00194924716636612 -87.9482108824011 -104.620957564185 3.40903707683169 -104.620957564185 3.40903707683169 -49.8916927710844 -118.215018517411
 1000000000 -0.00169654737861437 -88.8401110047739 -104.515338607847 0.825288785199596 -104.515338607847 0.825288785199607 -49.8729296538247 -119.709696048001
 1010000000 -0.0014535259428687 -89.7321657665968 -104.414541338464 -1.74913431128469 -104.414541338464 -1.74913431128469 -49.852495766962 -121.196140669216
 1020000000 -0.00122150854107197 -90.6243872233098 -104.318263484934 -4.31442529106519 -104.318263484934 -4.31442529106519 -49.830393154602 -122.673955033448
 1030000000 -0.00100214982508184 -91.5167880482158 -104.226227026126 -6.87078443843906 -104.226227026126 -6.87078443843906 -49.8066276254467 -124.14275238859
 1040000000 -0.000797480206095338 -92.409381236915 -104.138175810953 -9.41841682360555 -104.138175810953 -9.41841682360555 -49.7812086125596 -125.602157654671
 1050000000 -0.00060994841464147 -93.3021797244432 -104.053873455879 -11.9575303217413 -104.053873455879 -11.9575303217413 -49.754149020622 -127.051808430712
 1060000000 -0.000442456357820982 -94.1951959121388 -103.973101482285 -14.4883339946829 -103.973101482285 -14.4883339946829 -49.725465062044 -128.491355924645
 1070000000 -0.000298382276519398 -95.0884411071205 -103.895657661939 -17.01103677275 -103.895657661939 -17.01103677275 -49.6951760833598 -129.920465800458
 1080000000 -0.000181587897002913 -95.9819248849051 -103.821354543598 -19.5258463854873 -103.821354543598 -19.5258463854873 -49.663304383392 -131.338818937757
 1090000000 -9.6405300813195e-05 -96.8756543948265 -103.75001813774 -22.0329684991058 -103.75001813774 -22.0329684991058 -49.6298750247124 -132.746112100105
 1100000000 -4.75997233572606e-05 -97.7696336379177 -103.681486739782 -24.5326060257911 -103.681486739782 -24.5326060257911 -49.5949156399178 -134.142058509753
 1110000000 -4.03055319347265e-05 -98.6638627567174 -103.615609874872 -27.0249585760074 -103.615609874872 -27.0249585760074 -49.5584562342449 -135.526388327372
 1120000000 -7.99342598417661e-05 -99.558337384687 -103.552247349751 -29.5102220298321 -103.552247349751 -29.5102220298321 -49.5205289860062 -136.898849036615
 1130000000 -0.000172055738660297 -100.453048107939 -103.491268399095 -31.9885882073731 -103.491268399095 -31.9885882073731 -49.4811680462794 -138.259205734309
 1140000000 -0.000322255913603979 -101.347980092246 -103.432550915474 -34.4602446216176 -103.432550915474 -34.4602446216176 -49.4404093392241 -139.607241328
 1150000000 -0.000535977580660949 -102.243112922616 -103.375980753448 -36.925374299827 -103.375980753448 -36.925374299827 -49.398290364317 -140.942756643494
 1160000000 -0.000818352691930722 -103.138420690622 -103.32145109958 -39.3841556617986 -103.32145109958 -39.3841556617986 -49.3548500017042 -142.265570445776
 1170000000 -0.00117403664941513 -104.033872346817 -103.268861901141 -41.8367624452856 -103.268861901141 -41.8367624452856 -49.3101283217644 -143.575519377409
 1180000000 -0.00160705579918453 -104.929432313533 -103.218119347225 -44.2833636703311 -103.218119347225 -44.2833636703311 -49.2641663998859 -144.872457819009
 1190000000 -0.0021206789206601 -105.825061329921 -103.169135396706 -46.724123635676 -103.169135396706 -46.724123635676 -49.2170061373292 -146.156257676931
 1200000000 -0.00271732183601948 -106.720717479407 -103.121827348183 -49.1592019414308 -103.121827348183 -49.1592019414308 -49.1686900889441 -147.426808103647
 1210000000 -0.00339849151511711 -107.616357332938 -103.076117447612 -51.5887535331556 -103.076117447612 -51.5887535331556 -49.1192612983912 -148.684015156543
 1220000000 -0.00416477257955695 -108.511937131945 -103.031932529809 -54.0129287632573 -103.031932529809 -54.0129287632573 -49.0687631414076 -149.927801401062
 1230000000 -0.00501585540000949 -109.407413934058 -102.989203690479 -56.4318734662351 -102.989203690479 -56.4318734662351 -49.0172391775402 -151.158105464194
 1240000000 -0.00595060154305454 -110.302746652046 -102.947865985765 -58.845729044911 -102.947865985765 -58.845729044911 -48.9647330106737 -152.374881544306
 1250000000 -0.00696713959050645 -111.197896930658 -102.907858156679 -61.2546325651778 -102.907858156679 -61.2546325651778 -48.9112881585624 -153.57809888328
 1260000000 -0.00806298261234455 -112.092829824574 -102.869122376027 -63.6587168572505 -102.869122376027 -63.6587168572505 -48.8569479315054 -154.767741206736
 1270000000 -0.00923515792172261 -112.987514260618 -102.831604015738 -66.058110621668 -102.831604015738 -66.058110621668 -48.8017553201983 -155.943806137951
 1280000000 -0.0104803400986723 -113.881923286156 -102.795251432696 -68.4529385386484 -102.795251432696 -68.4529385386484 -48.7457528927154 -157.106304590903
 1290000000 -0.0117949794264379 -114.776034121095 -102.760015771389 -70.8433213795676 -102.760015771389 -70.8433213795677 -48.6889827005281 -158.255260147484
 1300000000 -0.0131754195567669 -115.669828042061 -102.725850781858 -73.2293761195897 -102.725850781858 -73.2293761195897 -48.631486193366 -159.390708423738
 1310000000 -0.0146180001154374 -116.563290133623 -102.692712651591 -75.6112160505961 -102.692712651591 -75.6112160505961 -48.5733041427087 -160.512696429563
 1320000000 -0.0161191418212644 -117.456408943507 -102.660559850123 -77.9889508937497 -102.660559850123 -77.9889508937497 -48.5144765736234 -161.621281926033
 1330000000 -0.0176754133363957 -118.349176077166 -102.629352985262 -80.3626869111234 -102.629352985262 -80.3626869111234 -48.4550427046369 -162.716532784108
 1340000000 -0.0192835803806334 -119.24158576308 -102.599054669917 -82.7325270159459 -102.599054669917 -82.7325270159459 -48.3950408952962 -163.798526348172
 1350000000 -0.0209406385900184 -120.133634414727 -102.569629398659 -85.0985708810661 -102.569629398659 -85.0985708810661 -48.3345086010435 -164.867348807452
 1360000000 -0.0226438321917802 -121.025320209163 -102.541043433175 -87.4609150453908 -102.541043433175 -87.4609150453908 -48.27348233502 -165.923094578069
 1370000000 -0.0243906608531941 -121.916642696372 -102.513264695902 -89.8196530180218 -102.513264695902 -89.8196530180219 -48.2119976363925 -166.965865698094
 1380000000 -0.026178877106639 -122.807602448326 -102.486262671153 -92.174875379931 -102.486262671153 -92.174875379931 -48.1500890447932 -167.995771237678
 1390000000 -0.028006476625173 -123.698200752345 -102.460008313146 -94.5266698830405 -102.460008313146 -94.5266698830405 -48.0877900804594 -169.012926726024
 1400000000 -0.0298716833873187 -124.588439349976 -102.434473960375 -96.875121546611 -102.434473960375 -96.875121546611 -48.025133229668 -170.017453596653
 1410000000 -0.0317729314758904 -125.478320220097 -102.409633255824 -99.2203127508709 -102.409633255824 -99.2203127508709 -47.9621499350429 -171.00947865218
 1420000000 -0.0337088449457845 -126.367845403278 -102.385461072567 -101.562323327864 -102.385461072567 -101.562323327864 -47.8988705903606 -171.989133549518
 1430000000 -0.0356782168957909 -127.257016863406 -102.361933444337 -103.901230649475 -102.361933444337 -103.901230649475 -47.8353245394407 -172.956554306245
 1440000000 -0.0376799886065548 -128.145836382083 -102.339027500695 -106.237109712664 -102.339027500695 -106.237109712664 -47.7715400787703 -173.911880828618
 1450000000 -0.0397132293708903 -129.034305481197 -102.316721406422 -108.570033221913 -102.316721406422 -108.570033221913 -47.7075444634866 -174.855256461549
 1460000000 -0.0417771174455899 -129.922425369197 -102.294994304857 -110.900071668918 -102.294994304857 -110.900071668918 -47.6433639163842 -175.786827560667
 1470000000 -0.0438709223955489 -130.810196906956 -102.273826264854 -113.227293409573 -102.273826264854 -113.227293409573 -47.5790236396123 -176.706743086462
 1480000000 -0.0459939889772663 -131.697620589488 -102.253198231115 -115.551764738296 -102.253198231115 -115.551764738296 -47.5145478287631 -177.615154220341
 1490000000 -0.0481457226156677 -132.584696540267 -102.233091977636 -117.873549959742 -102.233091977636 -117.873549959742 -47.4499596890544 -178.512214002336
 1500000000 -0.0503255764611961 -133.471424515348 -102.213490064062 -120.192711457982 -102.213490064062 -120.192711457982 -47.3852814533302 -179.398076990078
 1510000000 -0.0525330399667369 -134.357803914926 -102.194375794722 -122.509309763206 -102.194375794722 -122.509309763206 -47.320534401644 179.72710106142
 1520000000 -0.0547676288937976 -135.243833800375 -102.175733180176 -124.823403615995 -102.175733180176 -124.823403615995 -47.2557388821634 178.863163499704
 1530000000 -0.0570288766390358 -136.129512915177 -102.157546901081 -127.135050029288 -102.157546901081 -127.135050029288 -47.1909143331986 178.00995305515
 1540000000 -0.0593163267638493 -137.014839708438 -102.139802274223 -129.444304348052 -102.139802274223 -129.444304348052 -47.1260793061461 177.167312102194
 1550000000 -0.0616295266076555 -137.899812359983 -102.122485220567 -131.751220306767 -102.122485220567 -131.751220306767 -47.0612514891633 176.335082902221
 1560000000 -0.0639680218679576 -138.784428806223 -102.105582235194 -134.055850084782 -102.105582235194 -134.055850084782 -46.9964477314061 175.513107828813
 1570000000 -0.0663313520364772 -139.668686766199 -102.089080358975 -136.358244359624 -102.089080358975 -136.358244359624 -46.9316840676801 174.701229576087
 1580000000 -0.0687190465877978 -140.552583767323 -102.0729671519 -138.658452358311 -102.0729671519 -138.658452358311 -46.866975743361 173.899291350874
 1590000000 -0.071130621826274 -141.436117170497 -102.057230667917 -140.956521906769 -102.057230667917 -140.956521906769 -46.8023372394655 173.107137049486
 1600000000 -0.073565578305189 -142.319284194368 -102.041859431216 -143.252499477391 -102.041859431216 -143.252499477391 -46.7377822977573 172.324611419812
 1610000000 -0.0760233987417794 -143.202081938557 -102.026842413835 -145.546430234819 -102.026842413835 -145.546430234819 -46.673323945788 171.551560209503
 1620000000 -0.0785035463603597 -144.084507405764 -102.012169014518 -147.838358080023 -102.012169014518 -147.838358080023 -46.6089745217867 170.787830300959
 1630000000 -0.0810054636030634 -144.966557522697 -101.997829038751 -150.128325692722 -101.997829038751 -150.128325692722 -46.5447456993174 170.033269833869
 1640000000 -0.0835285711561185 -145.848229159812 -101.983812679882 -152.416374572224 -101.983812679882 -152.416374572224 -46.4806485116406 169.287728315978
 1650000000 -0.0860722672459382 -146.729519149861 -101.970110501273 -154.702545076736 -101.970110501273 -154.702545076737 -46.4166933757104 168.551056722793
 1660000000 -0.088635927164979 -147.610424305294 -101.956713419412 -156.986876461212 -101.956713419412 -156.986876461212 -46.352890115766 167.823107586876
 1670000000 -0.0912189029936038 -148.490941434536 -101.943612687934 -159.269406913786 -101.943612687934 -159.269406913786 -46.2892479864692 167.103735077383
 1680000000 -0.0938205234879077 -149.371067357206 -101.930799882483 -161.550173590849 -101.930799882483 -161.550173590849 -46.225775695548 166.392795070457
 1690000000 -0.0964400941084689 -150.250798918326 -101.918266886374 -163.829212650821 -101.918266886374 -163.829212650821 -46.1624814259226 165.690145211072
 1700000000 -0.0990768971682406 -151.130133001574 -101.906005877003 -166.106559286677 -101.906005877003 -166.106559286677 -46.0993728572809 164.995644966915
 1710000000 -0.101730192081016 -152.009066541649 -101.894009312961 -168.382247757264 -101.894009312961 -168.382247757264 -46.0364571870922 164.309155674826
 1720000000 -0.104399215694792 -152.887596535801 -101.882269921808 -170.656311417459 -101.882269921808 -170.656311417459 -45.973741151037 163.630540580331
 1730000000 -0.107083182696255 -153.765720054586 -101.870780688475 -172.928782747223 -101.870780688475 -172.928782747223 -45.9112310428449 162.959664870771
 1740000000 -0.109781286075721 -154.64343425189 -101.859534844244 -175.19969337959 -101.859534844244 -175.19969337959 -45.8489327335344 162.296395702473
 1750000000 -0.112492697641955 -155.5207363743 -101.848525856292 -177.469074127618 -101.848525856292 -177.469074127618 -45.7868516900463 161.640602222433
 1760000000 -0.115216568579655 -156.397623769832 -101.837747417745 -179.736955010379 -101.837747417745 -179.736955010379 -45.7249929932769 160.992155584913
 1770000000 -0.117952030041878 -157.2740938961 -101.82719343823 177.996634722026 -101.82719343823 177.996634722026 -45.6633613555048 160.350928963363
 1780000000 -0.120698193772445 -158.150144327939 -101.816858034893 175.731666564333 -101.816858034893 175.731666564333 -45.6019611372208 159.716797558037
 1790000000 -0.123454152752717 -159.025772764542 -101.806735523842 173.468112732863 -101.806735523842 173.468112732863 -45.5407963633624 159.089638599659