# Hz S DB R 50
!Touchstone multiport model file <C:\work\PySI\TestSignalIntegrity\OysterSimulation\ResampledSimbeor\Diplexer.s3p>
!Created on 22 Aug 18, at 17:55:31.
!Created with Simbeor THz 2018.01(64bit) of Simberian Inc. built on Jul 20 2018

!Output from MultiportParameters of Simbeor.
!Multiport parameters: DataOrigin=Simulation DataOriginName="Project(1).Diplexer_resampled.LNS"
!RESAMPLED_RCM: Max_RMS_Error=0.0164861; FrqLow=0; FrqHigh=4e+10; MaxTimeResolution=1.25e-11; PassivityState=1; ReciprocityState=1; DataSource="l°n"
!RATIONAL COMPACTOR: Precision: Normal; Extract Delay: ON; Extrapolate to DC: ON; Extrapolate to Infinity: OFF; Enforce Passivity: ON; Enforce Reciprocity: ON; Band Limit Factor: 1; Auto-Adjust Config: OFF

!Uncomment the following lines with keywords in square brakets to support IBIS forum specification 2.0.
![Version] 2.0 !This line should be the first in file, preceeding the line starting with #.
![Number of Ports] 3
![Number of Frequencies] 8001
![Reference] 50 50 50

!!!!Multiport descriptor profile: InputCount=3 TotalPortCount=3
!DescriptorOutline={DescriptorType=SMatrix InputSpace=Terminal NormalizationType=CommonZo NormalizationCommonZo=50 Ohm OutputFormat=DBMagnitudeAngle}
!InputProfile={Name="IO1" IsTLineInput=False InputNumber=1 PortCount=1 FirstPortNumber=1 InputSpace=Terminal BlockType=SBlock NormalizationType=CommonZo Zo=50}
!InputProfile={Name="IO2" IsTLineInput=False InputNumber=2 PortCount=1 FirstPortNumber=2 InputSpace=Terminal BlockType=SBlock NormalizationType=CommonZo Zo=50}
!InputProfile={Name="IO3" IsTLineInput=False InputNumber=3 PortCount=1 FirstPortNumber=3 InputSpace=Terminal BlockType=SBlock NormalizationType=CommonZo Zo=50}

!!!Global port number to input_name/local_port_number correspondence:
!Port 1 -> "IO1"/local_port_1 (terminal)
!Port 2 -> "IO2"/local_port_1 (terminal)
!Port 3 -> "IO3"/local_port_1 (terminal)
!!!!End of descriptor profile.

!Frequency Hz 20.0*log(|S[1,1]|) arg(S[1,1]) 20.0*log(|S[1,2]|) arg(S[1,2]) 20.0*log(|S[1,3]|) arg(S[1,3])
!       20.0*log(|S[2,1]|) arg(S[2,1]) 20.0*log(|S[2,2]|) arg(S[2,2]) 20.0*log(|S[2,3]|) arg(S[2,3])
!       20.0*log(|S[3,1]|) arg(S[3,1]) 20.0*log(|S[3,2]|) arg(S[3,2]) 20.0*log(|S[3,3]|) arg(S[3,3])
 0 -42.33191540027 180 -0.0725943015991095 0 -94.2363056292261 0
       -0.0725943015989588 0 -85.7096539693594 0 -74.4946737279485 0
       -94.2363056292264 0 -74.4946737279486 0 -0.125388749002869 0
 10000000 -42.3433555554814 179.333328141932 -0.0605763620138354 -1.42920513244173 -94.0283666891721 11.8942891796313
       -0.0605763620138402 -1.42920513244181 -74.1528953427364 -74.1811318423019 -74.4933199690865 0.0796000856884987
       -94.0283666891721 11.8942891796339 -74.4933199690865 0.0796000856886846 -0.125432188528566 -0.83105071507168
 20000000 -42.3778436214721 178.669974380916 -0.0448073382447391 -2.97858918483892 -93.4583316421413 22.7040217123094
       -0.044807338244742 -2.97858918483883 -68.3615135989593 -81.2188836762363 -74.4892607781195 0.158261347028167
       -93.4583316421412 22.7040217123106 -74.4892607781195 0.158261347028377 -0.125561397067018 -1.6619905256523
 30000000 -42.4358890034816 178.013540996125 -0.0364209714764716 -4.5715358215486 -92.6483768608303 31.8216272974023
       -0.0364209714764707 -4.57153582154854 -64.8766725361407 -83.3158521576524 -74.4825023928272 0.235045225334251
       -92.6483768608303 31.821627297402 -74.4825023928272 0.235045225334259 -0.125773046299411 -2.49271012434821
 40000000 -42.5183630959097 177.368230328289 -0.0329525676586872 -6.16742869229338 -91.7203975132716 39.1664622236192
       -0.032952567658691 -6.16742869229343 -62.3828317181909 -84.1312617985802 -74.4730551478892 0.309013596173222
       -91.7203975132716 39.1664622236192 -74.4730551478892 0.309013596173275 -0.126061596614344 -3.32310345309436
 50000000 -42.6265341604383 176.739229082654 -0.032113113591276 -7.7583680313715 -90.7603679831514 44.9542490151931
       -0.0321131135912721 -7.75836803137154 -60.4380373577531 -84.4306164639469 -74.4609333890134 0.379228750964381
       -90.7603679831514 44.9542490151932 -74.4609333890134 0.379228750964393 -0.126419314065154 -4.15306946110499
 60000000 -42.7621187513537 176.133208928178 -0.0327896454842242 -9.34389303357535 -89.8175963856018 49.4840352658719
       -0.0327896454842251 -9.34389303357537 -58.8414117084759 -84.472517955205 -74.4461553658828 0.444753108529872
       -89.8175963856018 49.4840352658718 -74.4461553658828 0.444753108529879 -0.126836305212722 -4.98251400960059
 70000000 -42.9273522105121 175.559011007387 -0.0344490407418583 -10.9246643203834 -88.9161818401976 53.0331342990469
       -0.0344490407418631 -10.9246643203834 -57.484839318267 -84.3686741289614 -74.428743116808 0.504648593240046
       -88.9161818401976 53.033134299047 -74.428743116808 0.504648593240084 -0.127300580765092 -5.81135194907679
 80000000 -43.1250811555461 175.028614876977 -0.0368135714689356 -12.501289749067 -88.0656486443272 55.825925761228
       -0.0368135714689395 -12.5012897490669 -56.3034783989113 -84.175357338177 -74.4087223610615 0.557975638302656
       -88.0656486443272 55.825925761228 -74.4087223610615 0.557975638302692 -0.127798161584475 -6.63950937288952
 90000000 -43.3588805060116 174.558546440664 -0.0397216442815964 -14.0741791031545 -87.2678758630311 58.0343064492542
       -0.0397216442815974 -14.0741791031546 -55.2553891688414 -83.92411700418 -74.3861224174096 0.603791802497154
       -87.2678758630311 58.0343064492542 -74.3861224174096 0.603791802497167 -0.128313242645038 -7.4669260214408
 100000000 -43.6331952039833 174.171968305772 -0.0430672457543217 -15.6435810845768 -86.5210365734848 59.7874001890149
       -0.0430672457543198 -15.6435810845768 -54.3118880000329 -83.6341158931077 -74.360976168476 0.64115003178497
       -86.5210365734848 59.7874001890149 -74.360976168476 0.641150031784948 -0.128828431431311 -8.2935577740602
 110000000 -43.9534995007082 173.901842930662 -0.0467721690237895 -17.2096370152248 -85.8216949815281 61.1819049517771
       -0.0467721690237905 -17.2096370152248 -53.452496618787 -83.3177524739698 -74.3333200902175 0.669096637324572
       -85.8216949815281 61.1819049517772 -74.3333200902175 0.669096637324564 -0.129325076491136 -9.11937912171924
 120000000 -44.3264477349818 173.795802359465 -0.0507725927325158 -18.7724231569779 -85.1658781143051 62.2906034728469
       -0.0507725927325158 -18.7724231569778 -52.6620881997174 -82.9834773772006 -74.3031943626873 0.686669116093171
       -85.1658781143051 62.290603472847 -74.3031943626873 0.686669116093166 -0.1297836987515 -9.94438546571912
 130000000 -44.7599439677406 173.923757223623 -0.0550123583620378 -20.3319805678868 -84.5496014993052 63.1687691695627
       -0.0550123583620358 -20.3319805678868 -51.9291755547403 -82.6373119924065 -74.2706430725419 0.692893984326224
       -84.5496014993052 63.1687691695627 -74.2706430725419 0.692893984326239 -0.13018453217541 -10.7685950404918
 140000000 -45.2629457303572 174.389903019229 -0.0594395795682024 -21.8883355400185 -83.96911062584 63.8588240155559
       -0.0594395795682044 -21.8883355400185 -51.2448337102067 -82.2837168525508 -74.2357145082408 0.686784837396634
       -83.96911062584 63.8588240155559 -74.2357145082408 0.686784837396631 -0.13050817101764 -11.5920502202829
 150000000 -45.844549393457 175.351632460121 -0.0640050052730142 -23.4415133379215 -83.4209770370614 64.3936871285588
       -0.0640050052730161 -23.4415133379214 -50.6019943225397 -81.9261123938561 -74.1984615364092 0.66734086556126
       -83.4209770370614 64.3936871285588 -74.1984615364091 0.667340865561279 -0.130736308428642 -12.4148179495983
 160000000 -46.5112738520958 177.048458652382 -0.0686613415372772 -24.991547090731 -82.9021218241088 64.7991820702181
       -0.0686613415372791 -24.9915470907311 -49.99496796434 -81.5672034524578 -74.1589420328109 0.633546048928804
       -82.9021218241088 64.799182070218 -74.1589420328108 0.633546048928831 -0.130852536254865 -13.2369890467474
 170000000 -47.2600440055567 179.841799010039 -0.0733630953698707 -26.5384830332421 -82.4098044181479 65.0957777072741
       -0.0733630953698688 -26.5384830332421 -49.4191113774992 -81.2091876352798 -74.1172193253997 0.584369202206057
       -82.4098044181479 65.0957777072741 -74.1172193253997 0.584369202206098 -0.130843160257799 -14.0586761781913
 180000000 -48.0616941753802 -175.748918051784 -0.0780666742566994 -28.0823829074547 -81.9415962475354 65.2998586105602
       -0.0780666742567004 -28.0823829074547 -48.8705899273137 -80.8538921197271 -74.0733625928619 0.518764947141713
       -81.9415962475354 65.2998586105601 -74.0733625928619 0.518764947141713 -0.130697971129727 -14.8800103938964
 190000000 -48.8276346421128 -169.087416637163 -0.0827305621351566 -29.6233241645955 -81.4953491923542 65.4246621344745
       -0.0827305621351566 -29.6233241645955 -48.3462042949262 -80.5028647778556 -74.0274471526067 0.435675550788953
       -81.4953491923542 65.4246621344745 -74.0274471526067 0.435675550788965 -0.130410902690037 -15.7011362479971
 200000000 -49.3654807183565 -159.750714474671 -0.0873154442074927 -31.1613985757099 -81.0691637042794 65.4809775895344
       -0.0873154442074947 -31.1613985757099 -47.8432615371305 -80.1574353398186 -73.9795545706394 0.334033399869461
       -81.0691637042795 65.4809775895344 -73.9795545706394 0.334033399869468 -0.129980507527623 -16.5222056922157
 210000000 -49.3944125015268 -148.353990284444 -0.0917841929268334 -32.696709900752 -80.6613588127786 65.4776739223862
       -0.0917841929268324 -32.696709900752 -47.3594774145254 -79.8187565662629 -73.929772534091 0.212763705028932
       -80.6613588127786 65.4776739223862 -73.929772534091 0.212763705028943 -0.129410189269974 -17.3433710988879
 220000000 -48.7363309788726 -137.105112463501 -0.0961016666362239 -34.2293713232566 -80.2704448794807 65.4221023131942
       -0.0961016666362229 -34.2293713232566 -46.8929011544798 -79.4878320483799 -73.8781944459174 0.0707868728824096
       -80.2704448794807 65.4221023131942 -73.8781944459174 0.0707868728824192 -0.128708150049861 -18.1647779161931
 230000000 -47.5201492756456 -128.526349220274 -0.100234314150012 -35.7595033805811 -79.89509929114 65.320406322252
       -0.100234314150015 -35.7595033805811 -46.4418565794676 -79.1655352158173 -73.8249187287392 -0.0929801198411822
       -79.89509929114 65.320406322252 -73.8249187287392 -0.092980119841187 -0.127887039798621 -18.9865575495325
 240000000 -46.0619045591971 -123.679421599068 -0.104149621626711 -37.2872330719444 -79.5341449766265 65.1777627225916
       -0.104149621626712 -37.2872330719444 -46.0048953684161 -78.8526228147287 -73.7700478565422 -0.279624043542378
       -79.5341449766265 65.1777627225915 -73.7700478565422 -0.279624043542372 -0.126963326676955 -19.8088210763786
 250000000 -44.6278705477847 -122.23304694088 -0.107815478037104 -38.8126946898741 -79.1865315181306 64.9985696156112
       -0.107815478037104 -38.812694689874 -45.5807594656055 -78.5497451919188 -73.7136871638881 -0.490238064909648
       -79.1865315181306 64.9985696156111 -73.7136871638881 -0.490238064909638 -0.125956439736534 -20.6316543283082
 260000000 -43.3675346484875 -123.357940760972 -0.111199566932493 -40.3360326978035 -78.8513186038463 64.7865939264397
       -0.111199566932489 -40.3360326978035 -45.1683505105462 -78.2574550123837 -73.6559435063281 -0.725927239880334
       -78.8513186038462 64.7865939264397 -73.6559435063281 -0.725927239880326 -0.124887760073754 -21.4551147226746
 270000000 -42.3463908453529 -126.219860017466 -0.114268910242635 -41.857406689117 -78.5276615851452 64.5450872771339
       -0.114268910242635 -41.857406689117 -44.7667047584231 -77.9762154631321 -73.5969238585055 -0.987817189593065
       -78.5276615851452 64.5450872771339 -73.5969238585055 -0.987817189593067 -0.123779550843125 -22.2792300236984
 280000000 -41.5808883219413 -130.113284448625 -0.116989691544309 -43.3769981453497 -78.2147989265899 64.2768770873516
       -0.116989691544306 -43.3769981453498 -44.3749723742329 -77.7064085263516 -73.5367339358536 -1.27706611780438
       -78.2147989265899 64.2768770873516 -73.5367339358536 -1.27706611780438 -0.122653917497521 -23.1039989952589
 290000000 -41.0586515338519 -134.483162217228 -0.119327471098679 -44.8950184022214 -77.9120413591341 63.9844382387846
       -0.119327471098677 -44.8950184022214 -43.9924002691924 -77.4483435367561 -73.4754769124937 -1.59488017803028
       -77.9120413591342 63.9844382387846 -73.4754769124937 -1.59488017803028 -0.121531878272716 -23.9293937129192
 300000000 -40.7511062136719 -138.924948112542 -0.121247874554495 -46.4117169667278 -77.6187625613613 63.6699495329967
       -0.121247874554495 -46.4117169667278 -43.6183178436369 -77.2022659733935 -73.4132522849066 -1.94253211350336
       -77.6187625613613 63.6699495329967 -73.4132522849066 -1.94253211350335 -0.120432604389221 -24.755363160137
 310000000 -40.6230613361556 -143.17262522754 -0.122717794507663 -47.9273891335445 -77.334391201664 63.3353383307686
       -0.122717794507664 -47.9273891335445 -43.2521251349092 -76.9683662755419 -73.350154902582 -2.32138308771898
       -77.334391201664 63.3353383307686 -73.350154902582 -2.32138308771899 -0.119372864220535 -25.5818376586497
 320000000 -40.6397639007532 -147.073788631969 -0.123707092579721 -49.442381742964 -77.0584041789197 62.9823160858932
       -0.123707092579716 -49.442381742964 -42.8932829624327 -76.7467884032489 -73.2862741575195 -2.73290770424847
       -77.0584041789197 62.9823160858933 -73.2862741575195 -2.73290770424848 -0.118366680432812 -26.4087336759224
 330000000 -40.7710768695206 -150.557909285497 -0.124190732847086 -50.9570959184657 -76.7903209039019 62.6124069268672
       -0.124190732847088 -50.9570959184657 -42.5413047302802 -76.5376378671295 -73.2216932975445 -3.17872237606116
       -76.7903209039019 62.6124069268673 -73.2216932975445 -3.17872237606116 -0.11742518758221 -27.235958601178
 340000000 -40.9931171855062 -153.606135545648 -0.124151218963775 -52.4719857307376 -76.5296984706781 62.2269709710944
       -0.124151218963773 -52.4719857307376 -42.1957496002769 -76.3409890045668 -73.1564888057152 -3.6606174285169
       -76.5296984706781 62.2269709710944 -73.1564888057152 -3.6606174285169 -0.11655666212642 -28.0634151667589
 350000000 -41.2882323913183 -156.227624144053 -0.12358115149455 -53.9875519667209 -76.2761275773856 61.8272236606861
       -0.123581151494543 -53.9875519667209 -41.8562167921984 -76.1568913565912 -73.0907297696204 -4.18059360410784
       -76.2761275773856 61.8272236606861 -73.0907297696204 -4.18059360410784 -0.115766687963161 -28.8910052928471
 360000000 -41.6441854821154 -158.443311430295 -0.122485674487808 -55.5043305434544 -76.0292290693028 61.4142520860549
       -0.122485674487809 -55.5043305434544 -41.5223408054803 -75.9853750815783 -73.0244771486043 -4.74090396627926
       -76.0292290693028 61.4142520860549 -73.0244771486043 -4.74090396627926 -0.115058417875285 -29.7186332333109
 370000000 -42.0531311344594 -160.275744604788 -0.120884548505436 -57.0228755924912 -75.788650992616 60.9890290042457
       -0.120884548505437 -57.0228755924912 -41.1937873905793 -75.8264554144531 -72.9577828310801 -5.34410258517028
       -75.788650992616 60.9890290042457 -72.9577828310801 -5.34410258517029 -0.114432893289749 -30.546207986428
 380000000 -42.5106780793715 -161.742991596815 -0.118813579633616 -58.5437378260004 -75.5540660638012 60.5524250583091
       -0.118813579633619 -58.5437378260004 -40.8702501281794 -75.6801362358807 -72.8906883544445 -5.99310184439114
       -75.5540660638012 60.5524250583091 -72.8906883544445 -5.99310184439115 -0.11388938990074 -31.3736450000152
 390000000 -43.015142363725 -162.854879784952 -0.116325158340874 -60.0674394260986 -75.3251694758118 60.1052195562125
       -0.116325158340874 -60.0674394260986 -40.551447500889 -75.5464128522299 -72.8232231324074 -6.69124075926976
       -75.3251694758118 60.1052195562125 -72.8232231324074 -6.69124075926977 -0.113425763411972 -32.2008672446182
 400000000 -43.5669971970049 -163.610243480841 -0.113487723257713 -61.5944472900507 -75.1016769772134 59.6481100592755
       -0.113487723257715 -61.5944472900507 -40.2371203648588 -75.4252741060088 -72.7554019928124 -7.44236739986231
       -75.1016769772134 59.6481100592754 -72.7554019928124 -7.44236739986231 -0.113038776675256 -33.0278057528341
 410000000 -44.1684802884517 -163.994200659855 -0.110384061968819 -63.1251469103753 -74.8833231736069 59.1817209578015
       -0.110384061968818 -63.1251469103753 -39.9270297478694 -75.3167039403523 -72.6872217664598 -8.25093941503672
       -74.8833231736068 59.1817209578015 -72.6872217664598 -8.25093941503672 -0.112724395988973 -33.8543997314126
 420000000 -44.8232958476443 -163.974646964712 -0.107108484812793 -64.6598193652104 -74.669860011814 58.7066111612071
       -0.10710848481279 -64.6598193652104 -39.6209549161297 -75.2206825351517 -72.6186565733609 -9.12214785712986
       -74.669860011814 58.7066111612071 -72.6186565733609 -9.12214785712986 -0.112478049789174 -34.6805963499493
 430000000 -45.5363195631926 -163.497143250527 -0.103763041658846 -66.1986237637458 -74.4610554162333 58.2232809996219
       -0.103763041658846 -66.1986237637458 -39.3186916645835 -75.1371871196361 -72.5496513128489 -10.0620711264937
       -74.4610554162333 58.2232809996219 -72.5496513128489 -10.0620711264936 -0.112294847234116 -35.5063502999235
 440000000 -46.3131531338073 -162.477200385865 -0.100453073530096 -67.7415870136224 -74.2566920538906 57.7321784132708
       -0.1004530735301 -67.7415870136224 -39.0200507953952 -75.0661925504587 -72.4801126546992 -11.0778680640183
       -74.2566920538906 57.7321784132708 -72.4801126546992 -11.0778680640183 -0.112169757268617 -36.3316232039918
 450000000 -47.1592356644962 -160.788701448256 -0.0972824781776645 -69.2886020037322 -74.0565662101521 57.233704495294
       -0.0972824781776664 -69.2886020037322 -38.7248567568914 -75.007671727738 -72.409896514893 -12.1780222647269
       -74.0565662101521 57.233704495294 -72.409896514893 -12.1780222647269 -0.112097750800412 -37.156382940383
 460000000 -48.0779172939912 -158.24714359928 -0.0943491041006115 -70.8394343468603 -73.8604867610515 56.7282184452205
       -0.0943491041006096 -70.8394343468603 -38.4329464210348 -74.9615959056948 -72.3387905254565 -13.3726539124793
       -73.8604867610515 56.7282184452205 -72.3387905254565 -13.3726539124793 -0.112073909821079 -37.9806029326657
 470000000 -49.0662856669695 -154.587648503349 -0.0917406641376048 -72.3937368647775 -73.6682742312353 56.2160419864161
       -0.0917406641376087 -72.3937368647775 -38.1441679818769 -74.9279349406033 -72.2664892825552 -14.6739213581096
       -73.6682742312353 56.2160419864161 -72.2664892825552 -14.6739213581096 -0.112093507862203 -38.8042614420776
 480000000 -50.1064574321741 -149.443939104178 -0.0895314830156967 -73.9510701891548 -73.4797599286549 55.6974632967956
       -0.0895314830156967 -73.9510701891548 -37.8583799607139 -74.9066575068968 -72.1925590332289 -16.0965430134838
       -73.4797599286549 55.6974632967956 -72.1925590332289 -16.0965430134838 -0.112152066281351 -39.6273408884985
 490000000 -51.1489781542053 -142.355483749522 -0.0877802792502472 -75.5109273222466 -73.2947851487063 55.1727404994148
       -0.0877802792502423 -75.5109273222466 -37.5754503061387 -74.897731302707 -72.1163866949205 -17.6584819884361
       -73.2947851487063 55.1727404994148 -72.1163866949205 -17.6584819884361 -0.112245390675019 -40.4498272171267
 500000000 -52.0877116937976 -132.880735268765 -0.0865290528355013 -77.0727598124543 -73.1132004416435 54.6421047565033
       -0.0865290528355013 -77.0727598124543 -37.2952555790368 -74.9011232586352 -72.0371052826115 -19.381852801281
       -73.1132004416435 54.6421047565033 -72.0371052826115 -19.381852801281 -0.112369591340588 -41.2717093208787
 510000000 -52.7441049933405 -120.944351214046 -0.085803028823282 -78.636003338724 -72.9348649379343 54.1057630077852
       -0.0858030288232849 -78.636003338724 -37.0176802140014 -74.9167997579268 -71.9534832473127 -21.2941336529544
       -72.9348649379343 54.1057630077852 -71.9534832473127 -21.2941336529544 -0.112521091243643 -42.0929785232328
 520000000 -52.9159535124887 -107.359204680576 -0.0856115108494147 -80.200100891175 -72.7596457267902 53.5639003905591
       -0.0856115108494138 -80.200100891175 -36.7426158497436 -74.9447268720555 -71.8637576980026 -23.4298021829246
       -72.7596457267902 53.5639003905591 -71.8637576980026 -23.4298021829246 -0.112696624453304 -42.91362812241
 530000000 -52.5153109915938 -93.8502699649942 -0.0859494377241996 -81.7645222770828 -72.5874172836362 53.0166823764301
       -0.0859494377241957 -81.7645222770828 -36.4699607219613 -74.9848706129111 -71.7653788738136 -25.8325611633833
       -72.5874172836362 53.0166823764301 -71.7653788738136 -25.8325611633833 -0.112893227527747 -43.7336529951408
 540000000 -51.6500564800545 -82.073604608909 -0.0867994118418639 -83.3287792613607 -72.4180609426061 52.464256656078
       -0.0867994118418658 -83.3287792613607 -36.1996191128439 -75.0371972008355 -71.6546118283137 -28.558387277753
       -72.4180609426061 52.464256656078 -71.6546118283137 -28.558387277753 -0.113108225886635 -44.5530492565477
 550000000 -50.5255406851187 -72.7218802419258 -0.0881339752674225 -84.8924361788031 -72.2514644105062 51.9067548008903
       -0.0881339752674215 -84.8924361788031 -35.9315008519876 -75.1016733465972 -71.5259045054811 -31.6797228436796
       -72.2514644105062 51.9067548008903 -71.5259045054811 -31.6797228436796 -0.113339216811143 -45.3718139716481
 560000000 -49.3128342713735 -65.650066587732 -0.0899179389851534 -86.4551162735534 -72.0875213189313 51.3442937267806
       -0.0899179389851534 -86.4551162735534 -35.6655208640157 -75.1782665446963 -71.3708677473072 -35.2912298970016
       -72.0875213189313 51.3442937267806 -71.3708677473072 -35.2912298970016 -0.113584050369185 -46.189944913478
 570000000 -48.1104059930403 -60.398675712031 -0.0921106129790106 -88.0165043053312 -71.9261308114867 50.7769769835797
       -0.0921106129790077 -88.0165043053312 -35.4015987586405 -75.2669453751944 -71.176602949468 -39.5176053271437
       -71.9261308114867 50.7769769835797 -71.176602949468 -39.5176053271437 -0.113840809272929 -47.00744036269
 580000000 -46.9629642552976 -56.5099399458152 -0.0946678307067964 -89.5763461153025 -71.7671971632665 50.2048958901327
       -0.0946678307067984 -89.5763461153025 -35.1396584593039 -75.3676798111903 -70.9229273358655 -44.5239215306913
       -71.7671971632665 50.2048958901327 -70.9229273358655 -44.5239215306913 -0.114107788433906 -47.8242989435794
 590000000 -45.8859160318605 -53.6229144181863 -0.0975437045500391 -91.1344458883829 -71.6106294299766 49.6281305333721
       -0.0975437045500391 -91.1344458883829 -34.8796278668903 -75.4804415292482 -70.577749228718 -50.5286164014911
       -71.6106294299766 49.6281305333721 -70.577749228718 -50.5286164014911 -0.114383474784 -48.6405194917541
 600000000 -44.8808943042157 -51.4746165773811 -0.100692084977896 -92.6906618126401 -71.4563411242672 49.0467506471765
       -0.100692084977895 -92.6906618126401 -34.6214385553278 -75.6052042203676 -70.0894258397752 -57.8184249369971
       -71.4563411242672 49.0467506471765 -70.0894258397752 -57.8184249369971 -0.114666527771025 -49.4561009490274
 610000000 -43.9437590530326 -49.8778712701417 -0.10406772375033 -94.2449007502361 -71.3042499170153 48.4608163852259
       -0.104067723750327 -94.2449007502361 -34.3650254961892 -75.7419438993393 -69.3745099508297 -66.7641525158091
       -71.3042499170153 48.4608163852259 -69.3745099508297 -66.7641525158091 -0.114955760811246 -50.2710422815067
 620000000 -43.0683680747165 -48.699470122501 -0.107627160489255 -95.7971124237119 -71.1542773615121 47.8703790000517
       -0.107627160489258 -95.7971124237119 -34.1103268096717 -75.8906392107323 -68.2992583877464 -77.8439884982193
       -71.1542773615121 47.8703790000517 -68.2992583877464 -77.8439884982193 -0.115250123882388 -51.0853424172848
 630000000 -42.2482558386863 -47.8436632358963 -0.111329363403196 -97.3472835056805 -71.0063486386161 47.2754814390537
       -0.111329363403197 -97.3472835056805 -33.8572835395819 -76.0512717300218 -66.6541096961289 -91.7347864277375
       -71.0063486386161 47.2754814390537 -66.6541096961289 -91.7347864277375 -0.115548687363683 -51.8990002005496
 640000000 -41.4773287371453 -47.2406550648098 -0.115136160387201 -98.895431891942 -70.8603923211299 46.6761588668783
       -0.115136160387198 -98.895431891942 -33.6058394501779 -76.2238262587464 -64.1230084985125 -109.787717921357
       -70.8603923211299 46.6761588668783 -64.1230084985125 -109.787717921357 -0.115850627171307 -52.7120143593248
 650000000 -40.7501103575302 -46.8387879741584 -0.119012497760219 -100.441601344768 -70.7163401557878 46.0724391224739
       -0.119012497760219 -100.441601344768 -33.3559408429255 -76.4082911128036 -60.3114155641413 -136.336961864915
       -70.7163401557878 46.0724391224738 -60.3114155641413 -136.336961864915 -0.116155211194916 -53.524383484427
 660000000 -40.0617871895562 -46.5992458581195 -0.122926562014836 -101.985856617475 -70.5741268613675 45.4643431177344
       -0.122926562014838 -101.985856617475 -33.1075363914179 -76.6046584033036 -56.0744846138687 173.964836397971
       -70.5741268613676 45.4643431177344 -56.0744846138687 173.964836397971 -0.116461787008439 -54.3361060175538
 670000000 -39.4081710542249 -46.4924387915462 -0.126849796345572 -103.528279113357 -70.4336899415588 44.8518851839574
       -0.126849796345575 -103.528279113357 -32.8605769928757 -76.8129243095651 -57.3011605742157 111.758932634837
       -70.4336899415588 44.8518851839574 -57.3011605742157 111.758932634837 -0.116769770806691 -55.1471802467257
 680000000 -38.7856316513305 -46.4955055225982 -0.13075683929564 -105.068963089902 -70.2949695113714 44.2350733716083
       -0.130756839295638 -105.068963089902 -32.6150156348106 -77.0330893440912 -60.7345600318428 79.4996442576005
       -70.2949695113714 44.2350733716082 -60.7345600318428 79.4996442576005 -0.117078637504284 -55.9576043075671
 690000000 -38.1910231374751 -46.5905641450723 -0.134625408248629 -106.608012390367 -70.1579081359013 43.6139097077094
       -0.134625408248631 -106.608012390367 -32.3708072755717 -77.2651586094409 -63.0990925005593 62.0916351470765
       -70.1579081359013 43.6139097077094 -63.0990925005593 62.0916351470765 -0.117387911923685 -56.7673761891529
 700000000 -37.6216148301276 -46.7634690858209 -0.138436146093436 -108.145537666584 -70.022450680457 42.9883904150814
       -0.138436146093437 -108.145537666584 -32.1279087376331 -77.5091420471173 -64.6342509398836 50.5205886679034
       -70.022450680457 42.9883904150814 -64.6342509398836 50.5205886679034 -0.11769716099436 -57.5764937433489
 710000000 -37.0750297114904 -47.0029152290616 -0.142172445434178 -109.681654046699 -69.8885441710571 42.3585060966761
       -0.142172445434177 -109.681654046699 -31.8862786125978 -77.76505467863 -65.6635401982665 41.9415245259071
       -69.8885441710571 42.3585060966761 -65.6635401982665 41.9415245259071 -0.118005986882902 -58.3849546967548
 720000000 -36.5491914947585 -47.2997833386652 -0.145820261306289 -111.2164791972 -69.7561376644319 41.7242418878083
       -0.145820261306289 -111.2164791972 -31.6458771770037 -78.0329168389998 -66.3774178566299 35.1887391149297
       -69.7561376644319 41.7242418878082 -66.3774178566299 35.1887391149297 -0.118314020974508 -59.1927566645127
 730000000 -36.0422797724181 -47.6466555335561 -0.149367920515245 -112.750131728267 -69.6251821267582 41.0855775789616
       -0.149367920515248 -112.750131728267 -31.4066663181207 -78.3127544030012 -66.8864146965432 29.6643555993583
       -69.6251821267582 41.0855775789616 -66.8864146965432 29.6643555993583 -0.118620918628377 -59.9998971653744
 740000000 -35.5526923090221 -48.0374522240884 -0.15280593340687 -114.282729893709 -69.4956303203365 40.4424877109524
       -0.152805933406873 -114.282729893709 -31.1686094690166 -78.6045990045043 -67.2571809942689 25.014692221265
       -69.4956303203365 40.4424877109524 -67.2571809942689 25.014692221265 -0.118926354632455 -60.8063736375345
 750000000 -35.0790134440103 -48.4671569244237 -0.15612681205131 -115.814390540609 -69.3674366975998 39.7949416442869
       -0.15612681205131 -115.814390540609 -30.9316715522539 -78.9084882492263 -67.5315647543336 21.0112694220627
       -69.3674366975998 39.7949416442869 -67.5315647543336 21.0112694220627 -0.119230019287638 -61.6121834548304
 760000000 -34.6199876286388 -48.9316054234749 -0.159324897408734 -117.345228268332 -69.2405573017975 39.1429036040094
       -0.159324897408733 -117.345228268332 -30.6958189316588 -79.2244659213011 -67.7368143779468 17.4978498539383
       -69.2405573017975 39.1429036040094 -67.7368143779468 17.4978498539383 -0.119531615055556 -62.4173239429917
 770000000 -34.1744972371723 -49.4273226376363 -0.162396196974946 -118.875354761459 -69.1149496738042 38.4863327011071
       -0.162396196974942 -118.875354761459 -30.4610193716721 -79.5525821839444 -67.8912492964422 14.3632754432626
       -69.1149496738042 38.486332701107 -67.8912492964422 14.3632754432626 -0.119830853708988 -63.2217923956876
 780000000 -33.7415439208921 -49.9513951757373 -0.165338233614334 -120.404878265946 -68.9905727645302 37.8251829313158
       -0.165338233614335 -120.404878265946 -30.2272420038544 -79.8928937745488 -68.0075382014475 11.5260652374541
       -68.9905727645302 37.8251829313158 -68.0075382014475 11.5260652374541 -0.12012745392877 -64.0255860901804
 790000000 -33.320232894533 -50.5013709260737 -0.168149905718901 -121.933903182323 -68.8673868524535 37.1594031518537
       -0.168149905718903 -121.933903182323 -29.9944573001815 -80.2454641944553 -68.0946634786808 8.92504531971625
       -68.8673868524535 37.1594031518537 -68.0946634786808 8.92504531971622 -0.120421139295862 -64.8287023024355