# Hz S DB R 50
!Touchstone multiport model file <C:\work\PySI\TestSignalIntegrity\OysterSimulation\ResampledSimbeor\RadiallRelayOpen.s2p>
!Created on 22 Aug 18, at 17:55:35.
!Created with Simbeor THz 2018.01(64bit) of Simberian Inc. built on Jul 20 2018

!Output from MultiportParameters of Simbeor.
!Multiport parameters: DataOrigin=Simulation DataOriginName="Project(1).RadiallRelayOpen_resampled.LNS"
!RESAMPLED_RCM: Max_RMS_Error=0.00625252; FrqLow=0; FrqHigh=4e+10; MaxTimeResolution=1.25e-11; PassivityState=1; ReciprocityState=1; DataSource="°Ðl°n"
!RATIONAL COMPACTOR: Precision: Normal; Extract Delay: ON; Extrapolate to DC: ON; Extrapolate to Infinity: OFF; Enforce Passivity: ON; Enforce Reciprocity: ON; Band Limit Factor: 1; Auto-Adjust Config: OFF

!Uncomment the following lines with keywords in square brakets to support IBIS forum specification 2.0.
![Version] 2.0 !This line should be the first in file, preceeding the line starting with #.
![Number of Ports] 2
![Number of Frequencies] 8001
![Two-Port Data Order] 21_12
![Reference] 50 50

!!!!Multiport descriptor profile: InputCount=2 TotalPortCount=2
!DescriptorOutline={DescriptorType=SMatrix InputSpace=Terminal NormalizationType=CommonZo NormalizationCommonZo=50 Ohm OutputFormat=DBMagnitudeAngle}
!InputProfile={Name="IO1" IsTLineInput=False InputNumber=1 PortCount=1 FirstPortNumber=1 InputSpace=Terminal BlockType=SBlock NormalizationType=CommonZo Zo=50}
!InputProfile={Name="IO2" IsTLineInput=False InputNumber=2 PortCount=1 FirstPortNumber=2 InputSpace=Terminal BlockType=SBlock NormalizationType=CommonZo Zo=50}

!!!Global port number to input_name/local_port_number correspondence:
!Port 1 -> "IO1"/local_port_1 (terminal)
!Port 2 -> "IO2"/local_port_1 (terminal)
!!!!End of descriptor profile.

!Frequency Hz 20.0*log(|S[1,1]|) arg(S[1,1]) 20.0*log(|S[2,1]|) arg(S[2,1]) 20.0*log(|S[1,2]|) arg(S[1,2]) 20.0*log(|S[2,2]|) arg(S[2,2])
 0 -0.000703585556198111 0 -151.010628869688 0 -151.010628869688 0 -6.17169578594106e-14 0
 10000000 -0.000738906443131175 -0.846477106595749 -150.993990028872 3.82786990213033 -150.993990028872 3.82786990213033 -4.16784886523516e-05 -0.273229193997688
 20000000 -0.000844718313892681 -1.69292544373291 -150.944416738759 7.63122769516818 -150.944416738759 7.63122769516818 -0.000166558957721162 -0.546427422196305
 30000000 -0.00102056983694831 -2.53931639757341 -150.862913845404 11.3866444602732 -150.862913845404 11.3866444602732 -0.000374177467227026 -0.819563875814032
 40000000 -0.00126571224242602 -3.38562166415461 -150.751076904953 15.0727438665153 -150.751076904953 15.0727438665153 -0.000663764272498895 -1.09260805872709
 50000000 -0.00157910445605564 -4.23181340092905 -150.610985281751 18.6709656569356 -150.610985281751 18.6709656569356 -0.00103424901697 -1.36552994037703
 60000000 -0.00195942020594342 -5.07786437427964 -150.44507335062 22.1660680398349 -150.44507335062 22.1660680398349 -0.001484267921915 -1.63830010462317
 70000000 -0.00240505702384139 -5.9237481017543 -150.255994942519 25.5463558525941 -150.255994942519 25.5463558525941 -0.00201217289473959 -1.91088989327345
 80000000 -0.00291414704139071 -6.76943898783746 -150.046494462931 28.803658519489 -150.046494462931 28.803658519489 -0.00261604245706337 -2.18327154310043
 90000000 -0.00348456946371281 -7.61491245215813 -149.819294582668 31.9331073652271 -149.819294582668 31.9331073652271 -0.00329369437519602 -2.45541831523117
 100000000 -0.00411396458566474 -8.46014504914325 -149.577006198438 34.9327735820803 -149.577006198438 34.9327735820803 -0.00404269985879502 -2.7273046159027
 110000000 -0.00479974920055152 -9.30511457822777 -149.322062463509 37.8032277545377 -149.322062463509 37.8032277545377 -0.00486039917887358 -2.99890610768588
 120000000 -0.0055391332401907 -10.1498001838645 -149.05667569414 40.5470731501237 -149.05667569414 40.5470731501237 -0.00574391854366229 -3.27019981040032
 130000000 -0.00632913747315132 -10.9941824447013 -148.782814065603 43.1684922235129 -148.782814065603 43.1684922235129 -0.00669018806119404 -3.54116419107182
 140000000 -0.00716661208236838 -11.8382434514314 -148.502194130269 45.6728324157727 -148.502194130269 45.6728324157727 -0.00769596060962055 -3.81177924242046
 150000000 -0.00804825593664786 -12.6819668729614 -148.216285075033 48.0662455766144 -148.216285075033 48.0662455766144 -0.00875783143164023 -4.08202654949976
 160000000 -0.00897063636974159 -13.5253380106834 -147.926321007589 50.3553862244167 -147.926321007589 50.3553862244167 -0.00987225826702503 -4.35188934425006
 170000000 -0.00993020927976572 -14.3683438407727 -147.633318178579 52.547167545799 -147.633318178579 52.547167545799 -0.0110355818372735 -4.62135254786035
 180000000 -0.0109233393645717 -15.2109730445742 -147.338094733902 54.6485701780845 -147.338094733902 54.6485701780845 -0.0122440464992382 -4.89040280097058
 190000000 -0.0119463203139254 -16.0532160272693 -147.041291239346 56.6664968625576 -147.041291239346 56.6664968625576 -0.0134938208892008 -5.15902848186924
 200000000 -0.0129953947860991 -16.895064925136 -146.743390773243 58.6076654326616 -146.743390773243 58.6076654326616 -0.0147810183860868 -5.4272197129634
 210000000 -0.0140667740055166 -17.7365136018411 -146.444737823673 60.4785328220825 -146.444737823673 60.4785328220825 -0.0161017172311448 -5.69496835590845
 220000000 -0.0151566568288832 -18.5775576342972 -146.145555558663 62.2852434694007 -146.145555558663 62.2852434694007 -0.0174519801521772 -5.96226799588737
 230000000 -0.0162612481394651 -19.4181942887294 -145.845961275615 64.0335964007627 -145.845961275615 64.0335964007627 -0.01882787335217 -6.22911391561635
 240000000 -0.017376776442804 -20.2584224876679 -145.545979998058 65.7290262213524 -145.545979998058 65.7290262213524 -0.0202254847355043 -6.49550305973514
 250000000 -0.0184995105515918 -21.0982427686704 -145.245556291909 67.3765941464978 -145.245556291909 67.3765941464978 -0.0216409412588227 -6.7614339903048
 260000000 -0.0196257752630111 -21.9376572356306 -144.944564435257 68.9809860034201 -144.944564435257 68.9809860034201 -0.0230704253082954 -7.02690683418679
 270000000 -0.0207519659476648 -22.7766695035906 -144.642817107914 70.5465148184728 -144.642817107914 70.5465148184728 -0.0245101900201673 -7.29192322312167
 280000000 -0.0218745619858122 -23.6152846380097 -144.340072779305 72.0771261722764 -144.340072779305 72.0771261722764 -0.0259565734766163 -7.55648622735076
 290000000 -0.0229901390030517 -24.4535090894747 -144.036041972606 73.5764049666501 -144.036041972606 73.5764049666501 -0.0274060117239019 -7.82060028363892
 300000000 -0.0240953798750982 -25.2913506248587 -143.730392574649 75.0475826170238 -143.730392574649 75.0475826170238 -0.0288550505747462 -8.08427111856614
 310000000 -0.0251870844866565 -26.1288182559458 -143.422754348077 76.4935439766836 -143.422754348077 76.4935439766836 -0.0303003561709196 -8.34750566794295
 320000000 -0.0262621782483076 -26.9659221665415 -143.112722787045 77.9168335304521 -143.112722787045 77.9168335304521 -0.0317387242957625 -8.61031199319325
 330000000 -0.0273177193901493 -27.8026736390907 -142.799862441597 79.319660575696 -142.799862441597 79.319660575696 -0.033167088438928 -8.87269919552028
 340000000 -0.0283509050694353 -28.6390849818069 -142.483709819509 80.7039032499035 -142.483709819509 80.7039032499035 -0.0345825266275664 -9.13467732864004
 350000000 -0.0293590763456178 -29.475169457307 -142.163775958297 82.0711113736679 -142.163775958297 82.0711113736679 -0.0359822670488685 -9.39625731082611
 360000000 -0.0303397220945298 -30.3109412137238 -141.83954874426 83.422508162055 -141.83954874426 83.422508162055 -0.0373636924985021 -9.65745083696418
 370000000 -0.0312904819511622 -31.1464152192378 -141.510495039911 84.7589909203529 -141.510495039911 84.7589909203529 -0.0387243436980647 -9.91827029126661
 380000000 -0.0322091483904379 -31.9816072009459 -141.176062665754 86.0811308848071 -141.176062665754 86.0811308848071 -0.0400619215319839 -10.1787286612397
 390000000 -0.0330936680761486 -32.8165335889359 -140.835682267041 87.389172396352 -140.835682267041 87.389172396352 -0.0413742882604016 -10.4388394534462
 400000000 -0.0339421426311814 -33.6512114663944 -140.488769080734 88.6830316059768 -140.488769080734 88.6830316059768 -0.0426594677697816 -10.6986166115441
 410000000 -0.0347528290079246 -34.4856585265116 -140.134724602434 89.9622949036146 -140.134724602434 89.9622949036146 -0.0439156449266421 -10.9580744370253
 420000000 -0.0355241396665479 -35.3198930368637 -139.772938137484 91.2262172370297 -139.772938137484 91.2262172370297 -0.0451411641029496 -11.2172275130233
 430000000 -0.0362546428014686 -36.1539338118524 -139.402788205042 92.4737204416683 -139.402788205042 92.4737204416683 -0.046334526943345 -11.4760906314983
 440000000 -0.03694306289456 -36.9878001936321 -139.023643748764 93.7033916346977 -139.023643748764 93.7033916346977 -0.0474943894454477 -11.7346787240566
 450000000 -0.0375882819136314 -37.821512041766 -138.634865093239 94.9134816350871 -138.634865093239 94.9134816350871 -0.0486195584244711 -11.9930067966059
 460000000 -0.0381893415244054 -38.6550897315872 -138.235804571746 96.1019032541947 -138.235804571746 96.1019032541947 -0.0497089874328108 -12.2510898680012
 470000000 -0.0387454467333809 -39.488554160884 -137.825806738691 97.2662291563801 -137.825806738691 97.2662291563801 -0.0507617722037269 -12.5089429127841
 480000000 -0.0392559714351725 -40.3219267640523 -137.404208069575 98.4036888147706 -137.404208069575 98.4036888147706 -0.0517771456865494 -12.766580808081
 490000000 -0.0397204663917631 -41.155229532224 -136.970336042908 99.5111638804804 -136.970336042908 99.5111638804804 -0.0527544727380101 -13.0240182846804
 500000000 -0.0401386702231105 -41.9884850370468 -136.523507492292 100.585181041426 -136.523507492292 100.585181041426 -0.0536932445318466 -13.281269882274
 510000000 -0.0405105240267747 -42.8217164547194 -136.063026113256 101.621901163508 -136.063026113256 101.621901163508 -0.0545930727451696 -13.5383499088173
 520000000 -0.0408361902615556 -43.6549475855228 -135.588179008364 102.617103173871 -135.588179008364 102.617103173871 -0.0554536835768901 -13.7952724039305
 530000000 -0.0411160765076782 -44.4882028624104 -135.098232155772 103.566160750153 -135.098232155772 103.566160750153 -0.0562749116496354 -14.0520511062397
 540000000 -0.0413508646345441 -45.3215073401867 -134.592424691203 104.46400940051 -134.592424691203 104.46400940051 -0.0570566938428858 -14.3086994245344
 550000000 -0.0415415457343412 -46.1548866544547 -134.069961901831 105.305100927412 -134.069961901831 105.305100927412 -0.0577990631009471 -14.5652304126003
 560000000 -0.0416894608845809 -46.9883669369118 -133.530006844499 106.083341519878 -133.530006844499 106.083341519878 -0.0585021422557845 -14.8216567475693
 570000000 -0.041796347338426 -47.8219746708993 -132.971670523197 106.792008752546 -132.971670523197 106.792008752546 -0.0591661379005279 -15.0779907116181
 580000000 -0.0418643890674423 -48.6557364686846 -132.394000597567 107.423641498077 -132.394000597567 107.423641498077 -0.0597913343458065 -15.334244176838
 590000000 -0.0418962696567927 -49.4896787502677 -131.795968655779 107.969895060357 -131.795968655779 107.969895060357 -0.0603780876874128 -15.5904285930896
 600000000 -0.0418952243556752 -50.3238273032906 -131.176456189264 108.42135153977 -131.176456189264 108.42135153977 -0.0609268200100141 -15.8465549786553
 610000000 -0.0418650866327813 -51.1582067058446 -130.534239583915 108.767272315308 -130.534239583915 108.767272315308 -0.0614380137484496 -16.102633913496
 620000000 -0.041810322953339 -51.9928395997857 -129.867974743937 108.995275251886 -129.867974743937 108.995275251886 -0.061912206224707 -16.3586755349242
 630000000 -0.0417360478529062 -52.8277458127929 -129.1761824776 109.090913386979 -129.1761824776 109.090913386979 -0.0623499843757592 -16.6146895355004
 640000000 -0.0416480100206308 -53.662941343831 -128.45723664632 109.037123863443 -128.45723664632 109.037123863443 -0.0627519796844883 -16.8706851629696
 650000000 -0.0415525394376201 -54.4984372492573 -127.709358561258 108.813505084443 -127.709358561258 108.813505084443 -0.0631188633233654 -17.1266712220536
 660000000 -0.0414564461693918 -55.3342384946327 -126.93062363465 108.395365784427 -126.93062363465 108.395365784427 -0.0634513415180834 -17.3826560779238
 670000000 -0.0413668637259367 -56.1703428676257 -126.118990592447 107.752471571002 -126.118990592447 107.752471571002 -0.063750151136047 -17.6386476611835
 680000000 -0.0412910344072307 -57.0067400752769 -125.272370886249 106.847393374478 -125.272370886249 106.847393374478 -0.0640160555027984 -17.8946534741979
 690000000 -0.0412360408289063 -57.8434111672297 -124.388768421471 105.633342593441 -124.388768421471 105.633342593441 -0.0642498404473468 -18.1506805986138
 700000000 -0.0412084964097968 -58.6803284271939 -123.466540795976 104.051373127904 -123.466540795976 104.051373127904 -0.0644523105760755 -18.4067357039239
 710000000 -0.0412142168254095 -59.5174558507044 -122.504868154054 102.026876410003 -122.504868154054 102.026876410003 -0.0646242857732007 -18.6628250569354
 720000000 -0.0412579024592059 -60.3547502747632 -121.504571105326 99.465477013988 -121.504571105326 99.465477013988 -0.0647665979245996 -18.918954532012
 730000000 -0.0413428665419642 -61.1921631473533 -120.469498635973 96.2489427717539 -120.469498635973 96.2489427717539 -0.064880087860846 -19.1751296219676
 740000000 -0.04147084304294 -62.0296428331269 -119.408794384726 92.2329348529879 -119.408794384726 92.2329348529879 -0.0649656025140568 -19.4313554494986
 750000000 -0.0416419015077763 -62.8671372635119 -118.340358287863 87.2509618655058 -118.340358287863 87.2509618655058 -0.0650239922827906 -19.6876367790474
 760000000 -0.0418544834932815 -63.704596675347 -117.295478526672 81.1332675913176 -117.295478526672 81.1332675913176 -0.0650561085981931 -19.9439780290028
 770000000 -0.0421055592035503 -64.541976158603 -116.323328400339 73.7540065425895 -116.323328400339 73.7540065425895 -0.065062801684239 -20.2003832841478
 780000000 -0.04239088668474 -65.3792377581586 -115.491233424222 65.1163212222171 -115.491233424222 65.1163212222171 -0.0650449185046014 -20.4568563082715
 790000000 -0.0427053429435387 -66.2163519420716 -114.873806835721 55.4546148146833 -114.873806835721 55.4546148146833 -0.0650033008881514 -20.7134005568749
 800000000 -0.0430432891890334 -67.0532983435888 -114.527757618507 45.2750688013057 -114.527757618507 45.2750688013057 -0.0649387838250462 -20.9700191899008
 810000000 -0.0433989320157938 -67.8900657848688 -114.46452976981 35.2439646481575 -114.46452976981 35.2439646481575 -0.0648521939250963 -21.2267150844312
 820000000 -0.0437666479803837 -68.7266516766299 -114.644016692381 25.958255418136 -114.644016692381 25.958255418136 -0.0647443480302817 -21.4834908472964
 830000000 -0.0441412486386111 -69.5630609457695 -114.995604962832 17.7693538051779 -114.995604962832 17.7693538051779 -0.0646160519728619 -21.7403488275501
 840000000 -0.0445181741808314 -70.3993046675217 -115.446849906968 10.7665513430996 -115.446849906968 10.7665513430996 -0.0644680994711422 -21.9972911287683
 850000000 -0.0448936140717809 -71.2353985731967 -115.940639653724 4.86605142822106 -115.940639653724 4.86605142822107 -0.0643012711545307 -22.2543196211366
 860000000 -0.0452645610598958 -72.0713615775689 -116.438736253974 -0.0911118552295888 -116.438736253974 -0.0911118552295838 -0.0641163337100945 -22.511435953293
 870000000 -0.0456288099431667 -72.9072144317974 -116.91835437605 -4.27618295714228 -116.91835437605 -4.27618295714228 -0.063914039142703 -22.7686415639023
 880000000 -0.0459849146817229 -73.7429785675877 -117.367301059313 -7.84364765515658 -117.367301059313 -7.84364765515659 -0.0636951241413076 -23.0259376929367
 890000000 -0.046332117407118 -74.5786751625675 -117.779973122315 -10.9223563601428 -117.779973122315 -10.9223563601428 -0.0634603095439393 -23.2833253926454
 900000000 -0.0466702613509879 -75.4143244290413 -118.154617938947 -13.6158987202073 -118.154617938947 -13.6158987202073 -0.0632102998944387 -23.5408055381986
 910000000 -0.0469996974176384 -76.249945109305 -118.491615815818 -16.0062453599182 -118.491615815818 -16.0062453599182 -0.0629457830840678 -23.7983788379933
 920000000 -0.0473211916224175 -77.0855541497632 -118.792452602269 -18.1579656407419 -118.792452602269 -18.1579656407419 -0.0626674300715156 -24.0560458436122
 930000000 -0.0476358382809942 -77.9211665215522 -119.059123243135 -20.1220143693091 -119.059123243135 -20.1220143693091 -0.0623758946751417 -24.3138069594293
 940000000 -0.0479449818708127 -78.7567951553394 -119.293794145971 -21.9388230597526 -119.293794145971 -21.9388230597527 -0.0620718134314404 -24.5716624518589
 950000000 -0.0482501489612749 -79.5924509607452 -119.498617826013 -23.6407178014892 -119.498617826013 -23.6407178014892 -0.0617558055141901 -24.8296124582457
 960000000 -0.0485529905136212 -80.4281429050448 -119.675636006592 -25.2537740384905 -119.675636006592 -25.2537740384905 -0.0614284727088978 -25.0876569953967
 970000000 -0.0488552341254617 -81.2638781304846 -119.826733519256 -26.7992289172329 -119.826733519256 -26.7992289172329 -0.0610903994376056 -25.3457959677559
 980000000 -0.0491586453604816 -82.099662094085 -119.953620941626 -28.2945560214882 -119.953620941626 -28.2945560214882 -0.0607421528291948 -25.6040291752255
 990000000 -0.0494649970875094 -82.9354987178438 -120.05783309702 -29.7542858935722 -120.05783309702 -29.7542858935722 -0.0603842828308261 -25.8623563206392
 1000000000 -0.0497760456867108 -83.771390540651 -120.140735931725 -31.190636069171 -120.140735931725 -31.190636069171 -0.0600173223562849 -26.1207770168911
 1010000000 -0.050093513011497 -84.6073388659717 -120.203537450918 -32.6139983975136 -120.203537450918 -32.6139983975136 -0.059641787467335 -26.3792907937291
 1020000000 -0.0504190730819337 -85.4433439014694 -120.247300254778 -34.0333191729074 -120.247300254778 -34.0333191729074 -0.0592581775844545 -26.6378971042182
 1030000000 -0.0507543426021958 -86.2794048883415 -120.272954310909 -35.4563984549289 -120.272954310909 -35.4563984549289 -0.0588669757234013 -26.896595330884
 1040000000 -0.0511008745201634 -87.1155202192858 -120.281309242662 -36.8901282080639 -120.281309242662 -36.8901282080639 -0.0584686487547226 -27.1553847915423
 1050000000 -0.0514601539698647 -87.9516875448274 -120.273065789779 -38.3406839435067 -120.273065789779 -38.3406839435067 -0.0580636476829204 -27.4142647448276
 1060000000 -0.0518335960516034 -88.7879038682745 -120.248826316891 -39.8136809207948 -120.248826316891 -39.8136809207948 -0.0576524079428266 -27.6732343954252
 1070000000 -0.0522225450058794 -89.6241656299112 -120.209104371368 -41.3143033076417 -120.209104371368 -41.3143033076417 -0.0572353497105239 -27.9322928990218
 1080000000 -0.0526282744232249 -90.4604687812329 -120.154333363397 -42.8474127401988 -120.154333363397 -42.8474127401988 -0.0568128782265844 -28.1914393669796
 1090000000 -0.0530519882065952 -91.2968088501262 -120.084874481294 -44.4176412823878 -120.084874481294 -44.4176412823878 -0.0563853841293387 -28.4506728707483
 1100000000 -0.0534948220636296 -92.1331809979137 -120.00102397805 -46.0294727137689 -120.00102397805 -46.0294727137689 -0.0559532437964881 -28.7099924460208
 1110000000 -0.0539578453555176 -92.969580069173 -119.903019979725 -47.6873152804732 -119.903019979725 -47.6873152804732 -0.0555168196929266 -28.9693970966464
 1120000000 -0.0544420631701419 -93.8060006351769 -119.791048978162 -49.3955684496104 -119.791048978162 -49.3955684496104 -0.0550764607234479 -29.2288857983093
 1130000000 -0.0549484185190516 -94.642437031751 -119.665252183249 -51.1586857596645 -119.665252183249 -51.1586857596645 -0.054632502588652 -29.4884575019817
 1140000000 -0.0554777945833167 -95.4788833922594 -119.525731926388 -52.9812355156866 -119.525731926388 -52.9812355156866 -0.0541852681428132 -29.7481111371642
 1150000000 -0.0560310169535771 -96.3153336763625 -119.372558329014 -54.8679608046875 -119.372558329014 -54.8679608046875 -0.0537350677523471 -30.0078456149197
 1160000000 -0.0566088558251527 -97.1517816951158 -119.205776480008 -56.8238400737684 -119.205776480008 -56.8238400737684 -0.0532821996539618 -30.2676598307117
 1170000000 -0.0572120281209857 -97.9882211329112 -119.025414405514 -58.8541492924159 -119.025414405514 -58.8541492924159 -0.0528269503113551 -30.5275526670574
 1180000000 -0.0578411995245444 -98.8246455666981 -118.831492166045 -60.9645264796866 -118.831492166045 -60.9645264796866 -0.0523695947696163 -30.787522996001
 1190000000 -0.0584969864119092 -99.6610484828662 -118.624032480751 -63.1610390795 -118.624032480751 -63.1610390795 -0.0519103970065238 -31.0475696814206
 1200000000 -0.0591799576771785 -100.497423292122 -118.403073359121 -65.4502542653153 -118.403073359121 -65.4502542653153 -0.0514496102801237 -31.3076915811724
 1210000000 -0.0598906364494467 -101.333763342641 -118.168683317191 -67.8393116864458 -118.168683317191 -67.8393116864458 -0.0509874774718053 -31.5678875490839
 1220000000 -0.0606295017022963 -102.170061931749 -117.920979868059 -70.3359973483353 -117.920979868059 -70.3359973483353 -0.050524231424482 -31.8281564368022
 1230000000 -0.0613969897586071 -103.006312316334 -117.660152101572 -72.9488161369032 -117.660152101572 -72.9488161369031 -0.0500600952753064 -32.0884970955057
 1240000000 -0.0621934956952098 -103.842507722182 -117.386488296325 -75.6870588075574 -117.386488296325 -75.6870588075574 -0.0495952827826175 -32.3489083774857
 1250000000 -0.0630193746521611 -104.678641352383 -117.100409620151 -78.5608568805488 -117.100409620151 -78.5608568805488 -0.0491299986465881 -32.6093891376066
 1260000000 -0.0638749430525364 -105.514706394949 -116.802511039165 -81.5812156014568 -116.802511039165 -81.5812156014567 -0.0486644388235031 -32.8699382346489
 1270000000 -0.0647604797387114 -106.350696029755 -116.493610512906 -84.760010713239 -116.493610512906 -84.7600107132389 -0.0481987908332341 -33.1305545325444
 1280000000 -0.0656762270307229 -107.186603434896 -116.174807312034 -88.1099290632414 -116.174807312034 -88.1099290632414 -0.0477332340598195 -33.3912369015079
 1290000000 -0.0666223917130599 -108.022421792556 -115.847549716852 -91.6443260119071 -115.847549716852 -91.6443260119071 -0.047267940044952 -33.6519842190713
 1300000000 -0.0675991459554576 -108.858144294446 -115.51371124418 -95.376964563359 -115.51371124418 -95.376964563359 -0.0468030727742411 -33.9127953710275
 1310000000 -0.0686066281729019 -109.693764146889 -115.175672657922 -99.3215931527686 -115.175672657922 -99.3215931527686 -0.0463387889562226 -34.1736692522871
 1320000000 -0.0696449438306041 -110.529274575588 -114.836404075639 -103.491313349592 -114.836404075639 -103.491313349592 -0.045875238293956 -34.4346047676553
 1330000000 -0.0707141661984542 -111.36466883013 -114.499537295221 -107.897689388044 -114.499537295221 -107.897689388044 -0.0454125637493132 -34.6956008325328
 1340000000 -0.0718143370596891 -112.19994018827 -114.169413107286 -112.549564608604 -114.169413107286 -112.549564608604 -0.044950901799793 -34.9566563735455
 1350000000 -0.0729454673782864 -113.035081960011 -113.851082492922 -117.451583597801 -113.851082492922 -117.451583597801 -0.0444903826880766 -35.2177703291068
 1360000000 -0.0741075379286797 -113.870087491526 -113.550235879664 -122.602480779112 -113.550235879664 -122.602480779112 -0.0440311306641698 -35.4789416499192
 1370000000 -0.0753004998918941 -114.704950168935 -113.27303394297 -127.993288956818 -113.27303394297 -127.993288956818 -0.0435732642203003 -35.7401692994159
 1380000000 -0.0765242754214628 -115.539663421959 -113.025820658824 -133.605734298096 -113.025820658824 -133.605734298096 -0.043116896318673 -36.0014522541486
 1390000000 -0.0777787581821427 -116.374220727472 -112.814717835765 -139.411185933172 -112.814717835765 -139.411185933172 -0.0426621346119995 -36.2627895041243
 1400000000 -0.079063813864417 -117.208615612959 -112.645130360025 -145.370565764122 -112.645130360025 -145.370565764122 -0.0422090816571101 -36.5241800530946
 1410000000 -0.0803792806777989 -118.042841659898 -112.521226758977 -151.435539331421 -112.521226758977 -151.435539331421 -0.041757835121638 -36.7856229188003
 1420000000 -0.0817249698247653 -118.876892507079 -112.445487284298 -157.55107505189 -112.445487284298 -157.55107505189 -0.0413084879839068 -37.0471171331754
 1430000000 -0.0831006659583011 -119.710761853856 -112.418415863281 -163.659119875725 -112.418415863281 -163.659119875725 -0.0408611287260843 -37.308661742513
 1440000000 -0.0845061276247064 -120.544443463355 -112.438484084049 -169.70281298826 -112.438484084049 -169.70281298826 -0.0404158415209852 -37.5702558075941
 1450000000 -0.0859410876937565 -121.377931165634 -112.502321037812 -175.630488649043 -112.502321037812 -175.630488649043 -0.0399727064122781 -37.8318984037856
 1460000000 -0.0874052537778993 -122.211218860808 -112.605102920716 178.601213024255 -112.605102920716 178.601213024255 -0.0395317994885637 -38.0935886211063
 1470000000 -0.0888983086423622 -123.044300522129 -112.741054637599 173.025535797249 -112.741054637599 173.025535797249 -0.0390931930513182 -38.3553255642649
 1480000000 -0.0904199106071893 -123.877170199044 -112.90396565438 167.665154597351 -112.90396565438 167.665154597351 -0.038656955776817 -38.6171083526726
 1490000000 -0.0919696939431758 -124.709822020219 -113.087641226971 162.53284619361 -113.087641226971 162.53284619361 -0.0382231528723816 -38.8789361204305
 1500000000 -0.0935472692623965 -125.542250196533 -113.286243975917 157.632897669898 -113.286243975917 157.632897669898 -0.0377918462268088 -39.1408080162959
 1510000000 -0.0951522239049027 -126.374449024057 -113.494514388493 152.962856134386 -113.494514388493 152.962856134386 -0.0373630945553956 -39.4027232036281
 1520000000 -0.0967841223224236 -127.206412886994 -113.707882782117 148.515303512145 -113.707882782117 148.515303512145 -0.0369369535395871 -39.664680860315
 1530000000 -0.098442506460105 -128.038136260609 -113.922497233713 144.279453517716 -113.922497233713 144.279453517716 -0.0365134759614032 -39.9266801786832
 1540000000 -0.100126896137193 -128.869613714125 -114.135194330814 140.242472118115 -114.135194330814 140.242472118115 -0.0360927118328157 -40.1887203653922
 1550000000 -0.101836789427413 -129.700839913605 -114.343436248103 136.390498800659 -114.343436248103 136.390498800659 -0.0356747085202031 -40.4508006413154
 1560000000 -0.103571663039952 -130.531809624805 -114.545232020639 132.709391517474 -114.545232020639 132.709391517474 -0.0352595108641369 -40.7129202414059
 1570000000 -0.105330972701557 -131.362517716006 -114.739055168025 129.185239494222 -114.739055168025 129.185239494222 -0.034847161294392 -40.9750784145541
 1580000000 -0.107114153540332 -132.19295916082 -114.92376507653 125.804693456916 -114.92376507653 125.804693456916 -0.0344376999406729 -41.2372744234313
 1590000000 -0.108920620472201 -133.023129040976 -115.098536060292 122.555159374352 -115.098536060292 122.555159374352 -0.0340311647388744 -41.4995075443268
 1600000000 -0.110749768589931 -133.853022549074 -115.262795692971 119.424894502964 -115.262795692971 119.424894502964 -0.0336275915332418 -41.7617770669744
 1610000000 -0.112600973555859 -134.682634991319 -115.416172575121 116.403036326532 -115.416172575121 116.403036326532 -0.0332270141744558 -42.0240822943727
 1620000000 -0.114473591998185 -135.511961790223 -115.558452914965 113.479587423524 -115.558452914965 113.479587423524 -0.0328294646137814 -42.2864225425986
 1630000000 -0.11636696191154 -136.340998487279 -115.689544930305 110.645372979317 -115.689544930305 110.645372979317 -0.0324349729934632 -42.5487971406143
 1640000000 -0.118280403062223 -137.169740745607 -115.809449963734 107.891982697929 -115.809449963734 107.891982697929 -0.032043567733485 -42.8112054300703
 1650000000 -0.120213217398161 -137.998184352566 -115.918239230748 105.21170512957 -115.918239230748 105.21170512957 -0.0316552756147335 -43.0736467651032
 1660000000 -0.122164689464152 -138.826325222336 -116.016035219486 102.597459701794 -116.016035219486 102.597459701794 -0.0312701218588326 -43.3361205121299
 1670000000 -0.124134086822406 -139.654159398465 -116.102996888394 100.04272980097 -116.102996888394 100.04272980097 -0.0308881302046252 -43.5986260496395
 1680000000 -0.126120660478906 -140.481683056377 -116.179307939868 97.5414989004609 -116.179307939868 97.5414989004609 -0.030509322981552 -43.8611627679814
 1690000000 -0.128123645315412 -141.308892505846 -116.245167570928 95.0881908130961 -116.245167570928 95.0881908130961 -0.0301337211799028 -44.1237300691529
 1700000000 -0.130142260527753 -142.135784193436 -116.300783210939 92.6776145346498 -116.300783210939 92.6776145346498 -0.0297613445181887 -44.3863273665834
 1710000000 -0.132175710070011 -142.962354704885 -116.346364849387 90.3049137503815 -116.346364849387 90.3049137503815 -0.0293922115075885 -44.6489540849195
 1720000000 -0.13422318310513 -143.788600767469 -116.382120634586 87.9655208309746 -116.382120634586 87.9655208309746 -0.0290263395137685 -44.9116096598079
 1730000000 -0.136283854462161 -144.614519252302 -116.408253488305 85.6551149995721 -116.408253488305 85.6551149995722 -0.0286637448159618 -45.174293537679
 1740000000 -0.138356885099623 -145.440107176603 -116.424958533649 83.3695842741617 -116.424958533649 83.3695842741617 -0.0283044426635695 -45.4370051755298
 1750000000 -0.140441422575633 -146.265361705912 -116.432421176067 81.1049907558301 -116.432421176067 81.1049907558301 -0.0279484473303182 -45.6997440407075
 1760000000 -0.142536601524796 -147.090280156259 -116.430815711834 78.8575388271541 -116.430815711834 78.8575388271541 -0.0275957721660049 -45.9625096106942
 1770000000 -0.144641544141506 -147.91485999628 -116.420304366372 76.6235458353379 -116.420304366372 76.6235458353379 -0.0272464296460764 -46.2253013728918