# Hz S DB R 50
!Touchstone multiport model file <C:\work\PySI\TestSignalIntegrity\OysterSimulation\ResampledSimbeor\RadiallRelayClosed.s2p>
!Created on 22 Aug 18, at 17:55:34.
!Created with Simbeor THz 2018.01(64bit) of Simberian Inc. built on Jul 20 2018

!Output from MultiportParameters of Simbeor.
!Multiport parameters: DataOrigin=Simulation DataOriginName="Project(1).RadiallRelayClosed_resampled.LNS"
!RESAMPLED_RCM: Max_RMS_Error=0.0223487; FrqLow=0; FrqHigh=4e+10; MaxTimeResolution=1.25e-11; PassivityState=1; ReciprocityState=1; DataSource="`ÂEÂn"
!RATIONAL COMPACTOR: Precision: Normal; Extract Delay: ON; Extrapolate to DC: ON; Extrapolate to Infinity: OFF; Enforce Passivity: ON; Enforce Reciprocity: ON; Band Limit Factor: 1; Auto-Adjust Config: OFF

!Uncomment the following lines with keywords in square brakets to support IBIS forum specification 2.0.
![Version] 2.0 !This line should be the first in file, preceeding the line starting with #.
![Number of Ports] 2
![Number of Frequencies] 8001
![Two-Port Data Order] 21_12
![Reference] 50 50

!!!!Multiport descriptor profile: InputCount=2 TotalPortCount=2
!DescriptorOutline={DescriptorType=SMatrix InputSpace=Terminal NormalizationType=CommonZo NormalizationCommonZo=50 Ohm OutputFormat=DBMagnitudeAngle}
!InputProfile={Name="IO1" IsTLineInput=False InputNumber=1 PortCount=1 FirstPortNumber=1 InputSpace=Terminal BlockType=SBlock NormalizationType=CommonZo Zo=50}
!InputProfile={Name="IO2" IsTLineInput=False InputNumber=2 PortCount=1 FirstPortNumber=2 InputSpace=Terminal BlockType=SBlock NormalizationType=CommonZo Zo=50}

!!!Global port number to input_name/local_port_number correspondence:
!Port 1 -> "IO1"/local_port_1 (terminal)
!Port 2 -> "IO2"/local_port_1 (terminal)
!!!!End of descriptor profile.

!Frequency Hz 20.0*log(|S[1,1]|) arg(S[1,1]) 20.0*log(|S[2,1]|) arg(S[2,1]) 20.0*log(|S[1,2]|) arg(S[1,2]) 20.0*log(|S[2,2]|) arg(S[2,2])
 0 -58.8056182074714 0 -0.0145088608207306 0 -0.0145088608207306 0 -51.9205197219699 0
 10000000 -58.7897905944428 1.6084218223429 -0.0145508012297986 -0.424964459234431 -0.0145508012297677 -0.424964459234022 -51.9578896464562 -1.61870991660102
 20000000 -58.7425853557536 3.19574618252112 -0.0146762100121031 -0.849881956587671 -0.0146762100121099 -0.84988195658808 -52.0674220783885 -3.08179233046999
 30000000 -58.6648176970541 4.7416872108321 -0.0148838601736416 -1.27470631354763 -0.0148838601736416 -1.27470631354763 -52.2410472355125 -4.23552084805822
 40000000 -58.5577899492294 6.22750581454646 -0.0151717406987122 -1.6993928910062 -0.0151717406987132 -1.69939289100599 -52.46429878806 -4.93346572890886
 50000000 -58.4232146393198 7.63660511946851 -0.0155371058657969 -2.12389929226448 -0.0155371058657978 -2.12389929226459 -52.7152363664567 -5.0488555076336
 60000000 -58.2631203019088 8.95494546917718 -0.0159765411193134 -2.54818599039571 -0.0159765411193105 -2.54818599039592 -52.9640248487634 -4.49634573833082
 70000000 -58.0797501930982 10.1712648771721 -0.0164860426051515 -2.97221686165222 -0.0164860426051466 -2.97221686165242 -53.1744853337775 -3.26169096355883
 80000000 -57.8754633256373 11.2771154907929 -0.0170611070140559 -3.39595961176725 -0.017061107014055 -3.39595961176714 -53.3089313303433 -1.42962044783953
 90000000 -57.6526452500293 12.26674508081 -0.0176968281336211 -3.81938608752069 -0.0176968281336182 -3.81938608752063 -53.336245838549 0.808697346193418
 100000000 -57.4136334079238 13.1368628262918 -0.0183879964861145 -4.24247247153412 -0.0183879964861164 -4.24247247153412 -53.2403992330814 3.18557394428865
 110000000 -57.1606592831882 13.8863311365588 -0.0191291986076639 -4.66519936339824 -0.0191291986076639 -4.66519936339824 -53.0247278689492 5.42028873747756
 120000000 -56.895807401829 14.5158216911867 -0.019914912869919 -5.08755175473618 -0.01991491286992 -5.08755175473603 -52.7092234232707 7.28628195303838
 130000000 -56.6209896889216 15.0274667636457 -0.0207395992174769 -5.50951890937253 -0.020739599217475 -5.50951890937258 -52.322764133406 8.64919271425188
 140000000 -56.3379327974462 15.4245284258524 -0.0215977807437277 -5.9310941623219 -0.0215977807437315 -5.9310941623218 -51.8949122706879 9.46646295686749
 150000000 -56.0481756797223 15.7111000581112 -0.0224841156103465 -6.35227465282165 -0.0224841156103456 -6.3522746528217 -51.4505849969755 9.76272322715501
 160000000 -55.7530747231429 15.8918476882541 -0.023393458388786 -6.77306100717312 -0.023393458388787 -6.77306100717312 -51.0081049167256 9.60011356390984
 170000000 -55.4538140646662 15.9717934373158 -0.0243209104330914 -7.19345698682813 -0.0243209104330905 -7.19345698682816 -50.5795053342573 9.05482304989653
 180000000 -55.1514191065041 15.9561397431648 -0.0252618593574098 -7.61346911616774 -0.025261859357405 -7.61346911616781 -50.1718049806465 8.20254973544516
 190000000 -54.8467716886283 15.8501308271456 -0.0262120080742344 -8.03310630290821 -0.0262120080742334 -8.03310630290823 -49.7884307679759 7.11122406347243
 200000000 -54.5406257763825 15.6589467540496 -0.0271673941439452 -8.45237946224752 -0.0271673941439423 -8.45237946224751 -49.4304259662644 5.83838000772929
 210000000 -54.2336228664225 15.387625076842 -0.0281244003940194 -8.87130115388385 -0.0281244003940204 -8.87130115388385 -49.0973536782234 4.4310495941476
 220000000 -53.9263065911133 15.0410052032634 -0.0290797578935915 -9.28988523902583 -0.0290797578935905 -9.28988523902586 -48.7879242085224 2.9268153828979
 230000000 -53.6191362140235 14.6236910417347 -0.0300305424261374 -9.70814656260883 -0.0300305424261383 -9.70814656260886 -48.5004092925459 1.35525648250775
 240000000 -53.3124988640601 14.1400280462848 -0.0309741656022317 -10.1261006641823 -0.0309741656022336 -10.1261006641822 -48.2329046433154 -0.260593352616117
 250000000 -53.0067204642656 13.5940913789216 -0.0319083617080769 -10.5437635194059 -0.0319083617080789 -10.5437635194059 -47.9834896480515 -1.90294022162928
 260000000 -52.7020753831729 12.9896824817117 -0.0328311713069286 -10.9611513128064 -0.0328311713069267 -10.9611513128065 -47.7503195686666 -3.55812943601832
 270000000 -52.3987948813711 12.3303318722727 -0.0337409225098836 -11.3782802414074 -0.0337409225098826 -11.3782802414073 -47.5316745767642 -5.21574874927569
 280000000 -52.0970744507083 11.619306428122 -0.0346362107204772 -11.7951663480469 -0.0346362107204733 -11.7951663480469 -47.3259818569874 -6.86791251219425
 290000000 -51.7970801549272 10.8596198056404 -0.0355158775407673 -12.2118253826093 -0.0355158775407673 -12.2118253826093 -47.1318213849291 -8.50869738206977
 300000000 -51.4989540823705 10.0540449537085 -0.0363789894123976 -12.6282726889991 -0.0363789894123956 -12.6282726889991 -46.9479221961383 -10.1337008959562
 310000000 -51.2028190178062 9.20512793341208 -0.0372248164574045 -13.0445231154599 -0.0372248164574025 -13.0445231154599 -46.7731534604707 -11.7396977168755
 320000000 -50.9087824328833 8.31520245898061 -0.0380528118846018 -13.4605909457243 -0.0380528118846018 -13.4605909457243 -46.6065130457043 -13.3243726017008
 330000000 -50.6169398858853 7.38640473116928 -0.0388625922388469 -13.8764898484916 -0.038862592238846 -13.8764898484917 -46.4471152031325 -14.8861131984054
 340000000 -50.327377911448 6.4206882588806 -0.0396539186934003 -14.2922328427955 -0.0396539186934013 -14.2922328427956 -46.2941783363844 -16.4238493033906
 350000000 -50.040176471251 5.41983845749098 -0.0404266795205914 -14.7078322769632 -0.0404266795205943 -14.7078322769632 -46.1470133904838 -17.9369281193858
 360000000 -49.7554110271955 4.38548688458631 -0.0411808738210852 -15.1232998190313 -0.0411808738210852 -15.1232998190312 -46.005013133504 -19.4250173865226
 370000000 -49.4731542900486 3.31912502595919 -0.0419165965484103 -15.5386464566738 -0.0419165965484103 -15.5386464566739 -45.8676424412899 -20.888030097099
 380000000 -49.1934776884577 2.2221175846979 -0.0426340248298158 -15.9538825049002 -0.0426340248298187 -15.9538825049002 -45.7344295993221 -22.3260659364499
 390000000 -48.9164525963832 1.09571525297087 -0.0433334055578619 -16.3690176199745 -0.0433334055578629 -16.3690176199745 -45.6049585809505 -23.7393657008238
 400000000 -48.6421513505685 -0.0589330336950912 -0.0440150442066715 -16.7840608182105 -0.0440150442066724 -16.7840608182105 -45.4788622323778 -25.1282757979018
 410000000 -48.37064808436 -1.2407683479477 -0.0446792948125041 -17.1990204984716 -0.044679294812507 -17.1990204984715 -45.3558162819374 -26.4932205935533
 420000000 -48.1020193993353 -2.44881050833888 -0.0453265510485896 -17.6139044673807 -0.0453265510485887 -17.6139044673807 -45.2355340880429 -27.8346808741173
 430000000 -47.8363448921662 -3.68214728041969 -0.0459572383184432 -18.0287199663987 -0.0459572383184451 -18.0287199663987 -45.1177620425457 -29.1531770831029
 440000000 -47.5737075505997 -4.93992401762875 -0.0465718067890456 -18.4434737000656 -0.0465718067890446 -18.4434737000656 -45.0022755516546 -30.449256290688
 450000000 -47.3141940295277 -6.22133372091855 -0.0471707252850762 -18.8581718648288 -0.0471707252850743 -18.8581718648288 -44.8888755233701 -31.7234820859322
 460000000 -47.0578948155893 -7.52560749899325 -0.0477544759666891 -19.2728201779828 -0.0477544759666881 -19.2728201779827 -44.7773852977162 -32.9764267598826
 470000000 -46.8049042867618 -8.85200541700478 -0.048323549716205 -19.6874239063447 -0.048323549716206 -19.6874239063447 -44.6676479631914 -34.2086652863832
 480000000 -46.5553206717767 -10.1998077270549 -0.0488784421627314 -20.1019878943673 -0.0488784421627285 -20.1019878943673 -44.5595240096878 -35.4207707143813
 490000000 -46.3092459129473 -11.5683064811542 -0.0494196502779886 -20.5165165914605 -0.0494196502779895 -20.5165165914605 -44.4528892742949 -36.6133106691221
 500000000 -46.0667854351521 -12.9567975346211 -0.0499476694812753 -20.9310140783489 -0.0499476694812753 -20.9310140783489 -44.3476331420214 -37.7868447244452
 510000000 -45.8280478232013 -14.3645729550484 -0.050462991196375 -21.3454840923446 -0.0504629911963731 -21.3454840923446 -44.2436569684017 -38.9419224591415
 520000000 -45.5931444095865 -15.7909138600246 -0.0509661008078117 -21.75993005145 -0.0509661008078107 -21.75993005145 -44.1408726953253 -40.0790820501847
 530000000 -45.362188774773 -17.2350837135547 -0.0514574759688135 -22.1743550772401 -0.0514574759688145 -22.1743550772401 -44.0392016352289 -41.1988492864428
 540000000 -45.1352961625903 -18.696322117986 -0.0519375852176321 -22.5887620165027 -0.0519375852176282 -22.5887620165027 -43.9385734021098 -42.3017369113072
 550000000 -44.9125828139732 -20.1738391438456 -0.0524068868632279 -23.00315346163 -0.0524068868632289 -23.00315346163 -43.8389249706805 -43.3882442215808
 560000000 -44.6941652232585 -21.6668102446616 -0.0528658281054983 -23.4175317697786 -0.0528658281055012 -23.4175317697786 -43.7401998474911 -44.4588568653425
 570000000 -44.4801593224027 -23.1743718072677 -0.0533148443585608 -23.8318990808233 -0.0533148443585618 -23.8318990808233 -43.642347339959 -45.5140467935383
 580000000 -44.2706795998469 -24.6956173891448 -0.0537543587495402 -24.2462573341409 -0.0537543587495421 -24.2462573341409 -43.545321911142 -46.5542723291988
 590000000 -44.0658381622464 -26.2295946945886 -0.0541847817679815 -24.6606082842689 -0.0541847817679825 -24.6606082842689 -43.4490826096452 -47.5799783261552
 600000000 -43.8657437488337 -27.775303338342 -0.0546065110441789 -25.0749535154862 -0.0546065110441809 -25.0749535154862 -43.3535925654777 -48.5915963946543
 610000000 -43.6705007098098 -29.3316934409746 -0.0550199312371334 -25.4892944553695 -0.0550199312371344 -25.4892944553695 -43.2588185438273 -49.5895451762831
 620000000 -43.4802079616598 -30.8976650929476 -0.0554254140152879 -25.903632387377 -0.0554254140152889 -25.903632387377 -43.1647305497764 -50.5742306542691
 630000000 -43.2949579337208 -32.4720687146648 -0.055823318115132 -26.3179684625164 -0.0558233181151301 -26.3179684625164 -43.0713014778721 -51.5460464880925
 640000000 -43.114835521526 -34.0537063283098 -0.0562139894648262 -26.7323037101489 -0.0562139894648223 -26.7323037101489 -42.9785068012182 -52.5053743640066
 650000000 -42.9399170633785 -35.6413337433333 -0.0565977613614403 -27.1466390479849 -0.0565977613614383 -27.1466390479849 -42.8863242954414 -53.4525843545788
 660000000 -42.7702693571734 -37.2336636420722 -0.0569749546921093 -27.5609752913215 -0.0569749546921123 -27.5609752913215 -42.7947337934533 -54.3880352821894
 670000000 -42.6059487346535 -38.82936953547 -0.057345878190542 -27.9753131615733 -0.0573458781905411 -27.9753131615733 -42.7037169674414 -55.3120750824741
 680000000 -42.4470002099877 -40.4270905414086 -0.0577108287214817 -28.389653294145 -0.0577108287214837 -28.389653294145 -42.6132571349394 -56.2250411645615
 690000000 -42.2934567187659 -42.0254369209932 -0.0580700915869629 -28.8039962456898 -0.0580700915869639 -28.8039962456898 -42.5233390862466 -57.1272607658881
 700000000 -42.1453384622458 -43.6229962914038 -0.0584239408487551 -29.2183425008002 -0.0584239408487551 -29.2183425008002 -42.4339489307449 -58.0190512998949
 710000000 -42.0026523699098 -45.2183404184921 -0.0587726396624343 -29.6326924781696 -0.0587726396624352 -29.6326924781696 -42.345073960001 -58.9007206952579
 720000000 -41.8653916912146 -46.810032479059 -0.0591164406191726 -30.0470465362654 -0.0591164406191726 -30.0470465362654 -42.2567025257614 -59.7725677258932
 730000000 -41.7335357248394 -48.3966346718569 -0.0594555860918188 -30.4614049785499 -0.0594555860918197 -30.4614049785499 -42.1688239311816 -60.6348823311253
 740000000 -41.6070496908808 -49.9767160486414 -0.059790308582502 -30.8757680582818 -0.059790308582502 -30.8757680582818 -42.081428333827 -61.4879459256134
 750000000 -41.4858847483879 -51.5488604324683 -0.0601208310693869 -31.290135982932 -0.0601208310693879 -31.290135982932 -41.9945066591418 -62.3320316989467
 760000000 -41.3699781574993 -53.1116742897051 -0.060447367350583 -31.7045089182422 -0.060447367350585 -31.7045089182422 -41.908050523244 -63.1674049048286
 770000000 -41.2592535823383 -54.6637944254434 -0.0607701223836511 -32.1188869919542 -0.0607701223836531 -32.1188869919542 -41.8220521640224 -63.9943231398825
 780000000 -41.1536215278648 -56.2038953786586 -0.0610892926193325 -32.533270297236 -0.0610892926193354 -32.533270297236 -41.7365043796425 -64.8130366122995
 790000000 -41.0529799011779 -57.7306964035435 -0.0614050663284482 -32.9476588958284 -0.0614050663284501 -32.9476588958284 -41.6514004736538 -65.6237884004641
 800000000 -40.9572146854056 -59.2429679361862 -0.0617176239211345 -33.3620528209334 -0.0617176239211306 -33.3620528209334 -41.5667342059883 -66.4268147018371
 810000000 -40.8662007123671 -60.7395374610212 -0.0620271382577411 -33.7764520798656 -0.0620271382577401 -33.7764520798656 -41.4824997492232 -67.2223450723576
 820000000 -40.7798025187125 -62.2192947083026 -0.0623337749509619 -34.1908566564861 -0.0623337749509619 -34.1908566564861 -41.398691649541 -68.0106026566788
 830000000 -40.6978752692785 -63.6811961315807 -0.0626376926587084 -34.6052665134342 -0.0626376926587084 -34.6052665134342 -41.315304791884 -68.7918044094974
 840000000 -40.6202657309099 -65.1242686324524 -0.0629390433676668 -35.0196815941756 -0.0629390433676668 -35.0196815941756 -41.2323343688688 -69.5661613083499
 850000000 -40.5468132799982 -66.5476125175433 -0.0632379726672578 -35.43410182488 -0.0632379726672568 -35.43410182488 -41.1497758530496 -70.3338785581313
 860000000 -40.4773509274609 -67.950403689681 -0.0635346200139963 -35.8485271161426 -0.0635346200139963 -35.8485271161426 -41.0676249721831 -71.0951557877068
 870000000 -40.4117063457189 -69.3318950906341 -0.0638291189863011 -36.2629573645619 -0.0638291189862982 -36.2629573645619 -40.9858776871809 -71.8501872388552
 880000000 -40.3497028834223 -70.6914174266114 -0.0641215975297576 -36.6773924541858 -0.0641215975297566 -36.6773924541858 -40.9045301724596 -72.5991619479014
 890000000 -40.2911605551153 -72.0283792192295 -0.064412178193014 -37.091832257836 -0.064412178193016 -37.091832257836 -40.8235787984455 -73.3422639202878
 900000000 -40.2358969946682 -73.3422662341941 -0.0647009783544469 -37.5062766383214 -0.0647009783544469 -37.5062766383214 -40.7430201159967 -74.0796722984233
 910000000 -40.1837283630498 -74.6326403469902 -0.0649881104397634 -37.9207254495484 -0.0649881104397614 -37.9207254495484 -40.6628508425541 -74.8115615229863
 920000000 -40.1344702028083 -75.8991379097634 -0.065273682130792 -38.3351785375377 -0.065273682130792 -38.3351785375377 -40.58306784983 -75.5381014880471
 930000000 -40.0879382334157 -77.1414676864023 -0.0655577965657157 -38.7496357413545 -0.0655577965657147 -38.7496357413545 -40.5036681528774 -76.2594576902139
 940000000 -40.0439490833431 -78.3594084235141 -0.0658405525308958 -39.1640968939588 -0.0658405525308958 -39.1640968939588 -40.4246489003995 -76.9757913719959
 950000000 -40.0023209563449 -79.5528061242565 -0.0661220446446875 -39.5785618229836 -0.0661220446446885 -39.5785618229836 -40.3460073661576 -77.6872596597356
 960000000 -39.9628742308938 -80.7215710895227 -0.0664023635333527 -39.9930303514455 -0.0664023635333537 -39.9930303514455 -40.267740941374 -78.3940156962118
 970000000 -39.9254319930224 -81.8656747874841 -0.0666815959995337 -40.4075022983939 -0.0666815959995337 -40.4075022983939 -40.1898471280218 -79.0962087681858
 980000000 -39.8898205039439 -82.9851466080671 -0.0669598251833309 -40.8219774795036 -0.0669598251833309 -40.8219774795036 -40.1123235329036 -79.7939844290705
 990000000 -39.8558696047831 -84.0800705538512 -0.0672371307165011 -41.2364557076159 -0.0672371307165001 -41.2364557076159 -40.0351678624418 -80.4874846169513
 1000000000 -39.8234130615111 -85.1505819133201 -0.0675135888697871 -41.6509367932318 -0.0675135888697862 -41.6509367932318 -39.9583779181013 -81.1768477680821
 1010000000 -39.7922888537772 -86.1968639566714 -0.0677892726939087 -42.0654205449608 -0.0677892726939107 -42.0654205449608 -39.8819515923803 -81.8622089260901
 1020000000 -39.7623394117668 -87.2191446887059 -0.0680642521542286 -42.4799067699309 -0.0680642521542286 -42.4799067699309 -39.8058868653055 -82.5436998470161
 1030000000 -39.7334118055034 -88.2176936875088 -0.0683385942595546 -42.8943952741609 -0.0683385942595546 -42.8943952741609 -39.7301818013795 -83.2214491003859
 1040000000 -39.7053578911798 -89.1928190523832 -0.0686123631851707 -43.3088858628982 -0.0686123631851707 -43.3088858628982 -39.6548345469326 -83.895582166417
 1050000000 -39.6780344191393 -90.144864479334 -0.0688856203904398 -43.7233783409273 -0.0688856203904368 -43.7233783409273 -39.5798433278307 -84.5662215295743
 1060000000 -39.6513031081012 -91.0742064776743 -0.0691584247311715 -44.1378725128479 -0.0691584247311657 -44.1378725128479 -39.5052064475062 -85.2334867685352
 1070000000 -39.6250306900764 -91.9812517371289 -0.0694308325669757 -44.5523681833279 -0.0694308325669737 -44.5523681833279 -39.4309222852718 -85.8974946427664
 1080000000 -39.5990889302499 -92.8664346509189 -0.0697028978638589 -44.9668651573324 -0.0697028978638599 -44.9668651573324 -39.3569892948881 -86.5583591757897
 1090000000 -39.5733546258621 -93.7302149969975 -0.0699746722922258 -45.3813632403302 -0.0699746722922258 -45.3813632403302 -39.2834060033529 -87.2161917353023
 1100000000 -39.5477095878471 -94.5730757766877 -0.0702462053205274 -45.7958622384802 -0.0702462053205274 -45.7958622384802 -39.2101710098927 -87.8711011102054
 1110000000 -39.5220406086917 -95.3955212074551 -0.0705175443047514 -46.2103619587996 -0.0705175443047514 -46.2103619587996 -39.1372829851264 -88.5231935847293
 1120000000 -39.4962394196688 -96.1980748645175 -0.0707887345739024 -46.6248622093149 -0.0707887345739024 -46.6248622093149 -39.0647406703857 -89.1725730096903
 1130000000 -39.470202640272 -96.9812779642908 -0.0710598195117342 -47.039362799197 -0.0710598195117342 -47.039362799197 -38.9925428771706 -89.8193408710313
 1140000000 -39.4438317223693 -97.7456877812836 -0.0713308406348008 -47.4538635388827 -0.0713308406347989 -47.4538635388827 -38.9206884867238 -90.4635963557103
 1150000000 -39.4170328912691 -98.4918761890833 -0.07160183766708 -47.8683642401824 -0.0716018376670791 -47.8683642401824 -38.8491764497103 -91.105436415041
 1160000000 -39.3897170855921 -99.2204283152723 -0.0718728486113012 -48.2828647163767 -0.0718728486112992 -48.2828647163767 -38.7780057859867 -91.7449558255858
 1170000000 -39.3617998975472 -99.9319412996301 -0.0721439098171027 -48.6973647823007 -0.0721439098170998 -48.6973647823008 -38.7071755844474 -92.3822472476626
 1180000000 -39.333201514933 -100.627023144691 -0.0724150560462266 -49.1118642544202 -0.0724150560462305 -49.1118642544202 -38.6366850029401 -93.0174012815674
 1190000000 -39.3038466659156 -101.306291647643 -0.0726863205348128 -49.5263629508962 -0.0726863205348128 -49.5263629508962 -38.5665332682367 -93.65050652158
 1200000000 -39.2736645674038 -101.970373402615 -0.0729577350529621 -49.9408606916438 -0.0729577350529631 -49.9408606916438 -38.4967196760527 -94.2816496078237
 1210000000 -39.2425888775946 -102.619902862622 -0.0732293299617502 -50.3553572983807 -0.0732293299617502 -50.3553572983807 -38.427243591106 -94.9109152760672
 1220000000 -39.2105576530713 -103.255521450773 -0.0735011342676875 -50.7698525946714 -0.0735011342676865 -50.7698525946714 -38.3581044472094 -95.5383864055231
 1230000000 -39.17751331063 -103.87787671079 -0.0737731756748841 -51.184346405962 -0.073773175674887 -51.184346405962 -38.2893017473869 -96.1641440647039
 1240000000 -39.1434025938461 -104.487621487413 -0.0740454806348795 -51.5988385596125 -0.0740454806348824 -51.5988385596125 -38.2208350640111 -96.788267555427
 1250000000 -39.1081765442276 -105.085413127851 -0.0743180743943986 -52.0133288849206 -0.0743180743943977 -52.0133288849206 -38.152704038954 -97.4108344549931
 1260000000 -39.0717904766761 -105.671912696106 -0.074590981040992 -52.4278172131428 -0.074590981040992 -52.4278172131428 -38.0849083837478 -98.0319206566206
 1270000000 -39.0342039588258 -106.247784192723 -0.074864223546783 -52.8423033775105 -0.0748642235467801 -52.8423033775105 -38.0174478797497 -98.6516004081913
 1280000000 -38.9953807937668 -106.813693773168 -0.0751378238102951 -53.2567872132414 -0.0751378238102932 -53.2567872132414 -37.9503223783062 -99.2699463493419
 1290000000 -38.9552890055133 -107.370308958961 -0.0754118026964978 -53.6712685575486 -0.0754118026964988 -53.6712685575486 -37.8835318009159 -99.8870295469864
 1300000000 -38.9139008265559 -107.918297836272 -0.0756861800752251 -54.0857472496449 -0.0756861800752251 -54.0857472496449 -37.8170761393836 -100.502919529288
 1310000000 -38.8711926867288 -108.458328237693 -0.0759609748578905 -54.5002231307454 -0.0759609748578905 -54.5002231307454 -37.750955455965 -101.117684318143
 1320000000 -38.8271452026033 -108.991066903506 -0.0762362050327041 -54.9146960440666 -0.0762362050327041 -54.9146960440666 -37.6851698834983 -101.731390460231
 1330000000 -38.7817431665678 -109.517178619725 -0.0765118876983964 -55.3291658348233 -0.0765118876983944 -55.3291658348233 -37.6197196255194 -102.344103056655
 1340000000 -38.7349755347467 -110.037325330844 -0.0767880390965863 -55.7436323502234 -0.0767880390965901 -55.7436323502234 -37.5546049563585 -102.955885791247
 1350000000 -38.6868354128751 -110.552165226092 -0.0770646746427157 -56.1580954394604 -0.0770646746427167 -56.1580954394604 -37.4898262212158 -103.566800957543
 1360000000 -38.6373200392817 -111.062351798674 -0.0773418089557805 -56.5725549537047 -0.0773418089557786 -56.5725549537047 -37.4253838362141 -104.176909484504
 1370000000 -38.5864307641118 -111.56853287824 -0.0776194558868191 -56.9870107460926 -0.077619455886821 -56.9870107460926 -37.3612782884257 -104.786270960992
 1380000000 -38.5341730239595 -112.071349637512 -0.077897628546231 -57.4014626717145 -0.077897628546231 -57.4014626717145 -37.2975101358721 -105.394943659072
 1390000000 -38.4805563111142 -112.57143557461 -0.0781763393299729 -57.8159105876014 -0.0781763393299681 -57.8159105876014 -37.234080007494 -106.002984556142
 1400000000 -38.4255941366485 -113.069415473303 -0.078455599944693 -58.2303543527103 -0.078455599944694 -58.2303543527103 -37.1709886030898 -106.61044935596
 1410000000 -38.3693039866424 -113.565904343928 -0.0787354214318996 -58.6447938279093 -0.0787354214318996 -58.6447938279093 -37.108236693222 -107.217392508577
 1420000000 -38.3117072708755 -114.061506348261 -0.0790158141910721 -59.0592288759608 -0.0790158141910701 -59.0592288759609 -37.0458251190888 -107.823867229227
 1430000000 -38.2528292633929 -114.5568137121 -0.0792967880019084 -59.4736593615045 -0.0792967880019074 -59.4736593615045 -36.9837547923567 -108.429925516202
 1440000000 -38.1926990344052 -115.052405629767 -0.0795783520456776 -59.88808515104 -0.0795783520456776 -59.88808515104 -36.9220266949607 -109.035618167747
 1450000000 -38.1313493730621 -115.548847165074 -0.0798605149257259 -60.3025061129079 -0.0798605149257279 -60.3025061129079 -36.8606418788588 -109.640994797996
 1460000000 -38.0688167007035 -116.046688153643 -0.0801432846871548 -60.7169221172717 -0.0801432846871587 -60.7169221172717 -36.7996014657494 -110.24610385201
 1470000000 -38.0051409742802 -116.546462111746 -0.0804266688357464 -61.1313330360986 -0.0804266688357425 -61.1313330360986 -36.7389066467456 -110.850992619898
 1480000000 -37.9403655797013 -117.048685157052 -0.0807106743561574 -61.5457387431391 -0.0807106743561593 -61.5457387431391 -36.6785586820041 -111.455707250111
 1490000000 -37.8745372149532 -117.553854946802 -0.0809953077294005 -61.9601391139086 -0.0809953077294034 -61.9601391139086 -36.6185589003106 -112.060292761891
 1500000000 -37.8077057629121 -118.062449639127 -0.0812805749496294 -62.3745340256663 -0.0812805749496255 -62.3745340256663 -36.5589086986171 -112.664793056921
 1510000000 -37.7399241538595 -118.574926883222 -0.0815664815402945 -62.7889233573956 -0.0815664815402964 -62.7889233573956 -36.4996095415324 -113.269250930215
 1520000000 -37.6712482177713 -119.091722844175 -0.0818530325697164 -63.2033069897839 -0.0818530325697164 -63.2033069897839 -36.4406629607613 -113.873708080267
 1530000000 -37.6017365265573 -119.61325126821 -0.0821402326660109 -63.617684805202 -0.082140232666008 -63.617684805202 -36.3820705544952 -114.478205118478
 1540000000 -37.5314502264791 -120.139902594074 -0.0824280860314666 -64.0320566876839 -0.0824280860314647 -64.0320566876839 -36.323833986749 -115.082781577906
 1550000000 -37.460452861071 -120.672043116173 -0.0827165964564196 -64.4464225229068 -0.0827165964564177 -64.4464225229068 -36.265954986645 -115.687475921362
 1560000000 -37.3888101849531 -121.210014204957 -0.0830057673325548 -64.8607821981702 -0.0830057673325607 -64.8607821981702 -36.2084353476436 -116.29232554887
 1570000000 -37.316589968998 -121.75413158992 -0.0832956016657599 -65.2751356023763 -0.0832956016657609 -65.2751356023763 -36.1512769267161 -116.897366804533
 1580000000 -37.2438617973959 -122.304684710283 -0.0835861020884582 -65.6894826260094 -0.0835861020884582 -65.6894826260094 -36.0944816434619 -117.502634982815
 1590000000 -37.170696857213 -122.861936138343 -0.0838772708715262 -66.1038231611164 -0.0838772708715242 -66.1038231611164 -36.0380514791676 -118.108164334288
 1600000000 -37.097167721125 -123.426121080062 -0.084169109935766 -66.5181571012865 -0.084169109935766 -66.5181571012864 -35.9819884758056 -118.71398807085
 1610000000 -37.0233481240565 -123.997446957265 -0.0844616208629486 -66.9324843416317 -0.0844616208629515 -66.9324843416317 -35.9262947349745 -119.320138370452
 1620000000 -36.9493127345289 -124.576093075461 -0.0847548049064901 -67.3468047787676 -0.0847548049064882 -67.3468047787676 -35.8709724167756 -119.926646381367
 1630000000 -36.8751369215778 -125.162210380896 -0.0850486630016625 -67.7611183107936 -0.0850486630016645 -67.7611183107936 -35.8160237386294 -120.53354222601
 1640000000 -36.8008965181489 -125.755921310112 -0.0853431957755771 -68.175424837274 -0.0853431957755751 -68.175424837274 -35.761450974027 -121.140855004348
 1650000000 -36.7266675819479 -126.357319734785 -0.0856384035566728 -68.5897242592192 -0.0856384035566728 -68.5897242592192 -35.7072564512184 -121.748612796939
 1660000000 -36.6525261547565 -126.966471004185 -0.0859342863839623 -69.0040164790668 -0.0859342863839623 -69.0040164790668 -35.653442551835 -122.356842667596
 1670000000 -36.5785480212784 -127.583412087068 -0.0862308440159121 -69.4183014006636 -0.0862308440159169 -69.4183014006636 -35.6000117094468 -122.965570665736
 1680000000 -36.5048084686142 -128.208151814265 -0.0865280759390239 -69.8325789292469 -0.086528075939021 -69.8325789292469 -35.5469664080525 -123.574821828418
 1690000000 -36.4313820475 -128.840671222656 -0.0868259813761239 -70.2468489714269 -0.0868259813761239 -70.2468489714269 -35.4943091805033 -124.184620182111
 1700000000 -36.3583423364636 -129.480924000616 -0.0871245592943734 -70.6611114351689 -0.0871245592943705 -70.6611114351689 -35.4420426068576 -124.794988744222
 1710000000 -36.2857617100827 -130.128837034328 -0.0874238084129499 -71.0753662297758 -0.0874238084129509 -71.0753662297758 -35.3901693126694 -125.405949524388
 1720000000 -36.2137111125244 -130.784311053746 -0.0877237272105594 -71.4896132658712 -0.0877237272105662 -71.4896132658712 -35.3386919672053 -126.017523525594
 1730000000 -36.14225983756 -131.447221376227 -0.0880243139326423 -71.9038524553821 -0.0880243139326413 -71.9038524553821 -35.2876132815956 -126.629730745126
 1740000000 -36.0714753162224 -132.117418745216 -0.0883255665982811 -72.3180837115226 -0.0883255665982831 -72.3180837115226 -35.2369360069137 -127.24259017538
 1750000000 -36.0014229132713 -132.794730260555 -0.0886274830070287 -72.7323069487775 -0.0886274830070228 -72.7323069487775 -35.1866629321887 -127.856119804571
 1760000000 -35.9321657335814 -133.478960396358 -0.0889300607453305 -73.1465220828857 -0.0889300607453286 -73.1465220828857 -35.1367968823454 -128.470336617376