# Hz S DB R 50
!Touchstone multiport model file <C:\work\PySI\TestSignalIntegrity\OysterSimulation\ResampledSimbeor\ScientificPulserSamplerScopeWfOnWafer2.s2p>
!Created on 22 Aug 18, at 17:52:31.
!Created with Simbeor THz 2018.01(64bit) of Simberian Inc. built on Jul 20 2018

!Output from MultiportParameters of Simbeor.
!Multiport parameters: DataOrigin=Simulation DataOriginName="Project(1).ScientificPulserSamplerScopeWfOnWafer2(1)_resampled.LNS"
!RESAMPLED_RCM: Max_RMS_Error=0.0228172; FrqLow=0; FrqHigh=4e+10; MaxTimeResolution=1.25e-11; PassivityState=0; ReciprocityState=0; DataSource="`럿n"
!RATIONAL COMPACTOR: Precision: Normal; Extract Delay: ON; Extrapolate to DC: ON; Extrapolate to Infinity: OFF; Enforce Passivity: OFF; Enforce Reciprocity: OFF; Band Limit Factor: 1; Auto-Adjust Config: OFF

!Uncomment the following lines with keywords in square brakets to support IBIS forum specification 2.0.
![Version] 2.0 !This line should be the first in file, preceeding the line starting with #.
![Number of Ports] 2
![Number of Frequencies] 8001
![Two-Port Data Order] 21_12
![Reference] 50 50

!!!!Multiport descriptor profile: InputCount=2 TotalPortCount=2
!DescriptorOutline={DescriptorType=SMatrix InputSpace=Terminal NormalizationType=CommonZo NormalizationCommonZo=50 Ohm OutputFormat=DBMagnitudeAngle}
!InputProfile={Name="IO1" IsTLineInput=False InputNumber=1 PortCount=1 FirstPortNumber=1 InputSpace=Terminal BlockType=SBlock NormalizationType=CommonZo Zo=50}
!InputProfile={Name="IO2" IsTLineInput=False InputNumber=2 PortCount=1 FirstPortNumber=2 InputSpace=Terminal BlockType=SBlock NormalizationType=CommonZo Zo=50}

!!!Global port number to input_name/local_port_number correspondence:
!Port 1 -> "IO1"/local_port_1 (terminal)
!Port 2 -> "IO2"/local_port_1 (terminal)
!!!!End of descriptor profile.

!Frequency Hz 20.0*log(|S[1,1]|) arg(S[1,1]) 20.0*log(|S[2,1]|) arg(S[2,1]) 20.0*log(|S[1,2]|) arg(S[1,2]) 20.0*log(|S[2,2]|) arg(S[2,2])
 0 -37.1306725299335 180 0 0 -0.191561708763135 0 -39.5236091823189 180
 10000000 -37.1370002733058 173.754585023562 5.78596479931972e-15 -2.03555499613665e-13 -0.192194869522224 -1.79877999114967 -39.4527251239398 -179.151676897052
 20000000 -37.1559842348494 167.504030271749 0 2.03555499613665e-13 -0.194102666214422 -3.59732363994501 -39.2719477004739 -178.792865952998
 30000000 -37.1876260578389 161.243173204317 1.92865493310657e-15 0 -0.19730918400279 -5.39535200295042 -39.0452107046354 -179.093272308834
 40000000 -37.2319266324116 154.966805426935 0 -5.08888749034163e-14 -0.201851716225956 -7.19250319999891 -38.8214162178464 -179.945036643713
 50000000 -37.2888832864078 148.669648990137 0 -1.01777749806833e-13 -0.207776542043422 -8.9882967671523 -38.6217969441599 178.837676460237
 60000000 -37.358485779052 142.346331867027 -9.64327466553287e-16 -5.08888749034163e-14 -0.215133149651418 -10.7821053744859 -38.4497579775311 177.404701951532
 70000000 -37.4407110225772 135.991362524914 3.85730986621315e-15 0 -0.223967111129057 -12.573136812317 -38.3016045186346 175.849395717891
 80000000 -37.5355164335524 129.599103686599 0 2.54444374517081e-14 -0.23431195890068 -14.360429183892 -38.1722500864916 174.222555294878
 90000000 -37.6428317918636 123.163745628295 -1.92865493310657e-15 -5.08888749034163e-14 -0.246180590594318 -16.1428618961854 -38.0573526904895 172.549239127489
 100000000 -37.7625494617451 116.679279699012 1.92865493310657e-15 0 -0.259556912169616 -17.9191841496117 -37.953815585112 170.840587277514
 110000000 -37.8945128078705 110.13947319222 0 0 -0.274388576542012 -19.6880611133968 -37.8597033839562 169.100906410712
 120000000 -38.0385026235637 103.537847279528 1.92865493310657e-15 2.54444374517081e-14 -0.290581735448874 -21.4481359059499 -37.7740066725726 167.331667570721
 130000000 -38.1942213828529 96.8676604535723 -9.64327466553287e-16 2.54444374517081e-14 -0.307998648669206 -23.1981031385348 -37.6964035584685 165.533715424603
 140000000 -38.361275141599 90.1219008491943 1.92865493310657e-15 -5.08888749034163e-14 -0.326458760545018 -24.9367875637634 -37.6270567110306 163.708480791207
 150000000 -38.5391529569467 83.2932919360506 0 2.54444374517081e-14 -0.345743469569438 -26.6632198299695 -37.5664477952792 161.858635235847
 160000000 -38.7272037857871 76.3743174032741 1.92865493310657e-15 1.27222187258541e-14 -0.36560433715469 -28.3767009559593 -37.515241877783 159.988419617835
 170000000 -38.9246109838749 69.3572725553159 0 1.27222187258541e-14 -0.385773997456662 -30.0768481626877 -37.4741742167444 158.103765485907
 180000000 -39.1303647860539 62.2343511162683 0 1.27222187258541e-14 -0.405978645453791 -31.7636170412653 -37.4439541758494 156.212269385996
 190000000 -39.3432335370613 54.9977778141217 0 1.27222187258541e-14 -0.4259507813869 -33.4372982601357 -37.4251835246678 154.323051610614
 200000000 -39.5617349945707 47.6399981645129 1.92865493310657e-15 0 -0.445440916658322 -35.0984904430988 -37.4182883720982 152.446519243175
 210000000 -39.7841097651918 40.1539369901457 0 0 -0.464227182398814 -36.7480537773275 -37.4234652245804 150.594050851828
 220000000 -40.008299859238 32.5333356724006 -1.92865493310657e-15 0 -0.482122160947207 -38.3870508055103 -37.4406421614086 148.777622153522
 230000000 -40.2319364107616 24.7731740022885 0 -1.27222187258541e-14 -0.498976690897326 -40.0166814937715 -37.4694559645424 147.009395253948
 240000000 -40.4523416742211 16.8701747418474 -1.92865493310657e-15 1.27222187258541e-14 -0.514680789917426 -41.6382191424835 -37.5092453895896 145.301296520395
 250000000 -40.6665512328322 8.82337674801177 -1.92865493310657e-15 -3.81666561775622e-14 -0.529162133685274 -43.2529523491582 -37.5590598305497 143.664608447587
 260000000 -40.8713625605718 0.634745510947273 1.92865493310657e-15 0 -0.542382696822215 -44.8621364668517 -37.6176816467522 142.109598530036
 270000000 -41.0634151905363 -7.69023070320232 -9.64327466553287e-16 1.27222187258541e-14 -0.554334207946171 -46.4669562225618 -37.6836595979424 140.645203404681
 280000000 -41.2393052780293 -16.1420321297848 1.92865493310657e-15 0 -0.56503302284027 -48.0684996504077 -37.7553503226873 139.278780185445
 290000000 -41.3957330307171 -24.7067754925354 0 -1.27222187258541e-14 -0.574514912963402 -49.6677423984919 -37.8309646607102 138.015930071596
 300000000 -41.5296755098143 -33.3661519678664 0 1.27222187258541e-14 -0.582830135102134 -51.265540810405 -37.9086158397215 136.86039304678
 310000000 -41.6385706007839 -42.0977129044659 -1.92865493310657e-15 1.27222187258541e-14 -0.590039018011501 -52.8626319052591 -37.986367034141 135.814007602153
 320000000 -41.7204921656729 -50.8755423985188 -2.89298239965986e-15 6.36110936292704e-15 -0.596208189735463 -54.4596383875161 -38.0622764355894 134.87672632534
 330000000 -41.7742935588034 -59.6712971977937 -9.64327466553287e-16 -6.36110936292704e-15 -0.601407482394915 -56.0570770069965 -38.1344386312576 134.046676909973
 340000000 -41.7996984769105 -68.4555275679334 1.92865493310657e-15 6.36110936292703e-15 -0.605707490518003 -57.6553688715225 -38.2010216685543 133.320258360025
 350000000 -41.7973249460139 -77.1991355772887 0 6.36110936292703e-15 -0.609177721458399 -59.2548506234805 -38.2602996321745 132.692263417678
 360000000 -41.7686388112044 -85.8747974285816 1.92865493310657e-15 1.27222187258541e-14 -0.611885257301667 -60.855785684278 -38.3106808509175 132.156020018414
 370000000 -41.7158446446662 -94.4581838926967 -9.64327466553287e-16 6.36110936292704e-15 -0.613893841793346 -62.4583750238443 -38.3507319962321 131.703546419331
 380000000 -41.6417313771822 -102.928855093384 0 6.36110936292703e-15 -0.615263308676054 -64.0627671169119 -38.3791983642413 131.325716224759
 390000000 -41.5494949064656 -111.270769145262 -9.64327466553287e-16 0 -0.616049275757631 -65.6690669039333 -38.3950205900489 131.012430660483
 400000000 -41.442559813207 -119.472409785506 -1.92865493310657e-15 1.27222187258541e-14 -0.61630303938374 -67.2773436873811 -38.3973479704692 130.752796075621
 410000000 -41.3244181140587 -127.526590086763 0 6.36110936292703e-15 -0.616071614959613 -68.8876379712734 -38.3855485054703 130.53530484392
 420000000 -41.1984966139128 -135.430019096935 0 -6.36110936292703e-15 -0.615397879649351 -70.4999673008574 -38.3592157349383 130.348017735694
 430000000 -41.0680578487481 -143.182725602901 0 0 -0.614320782776724 -72.1143311876064 -38.3181724577652 130.178745617977
 440000000 -40.9361342249786 -150.7874236545 0 1.90833280887811e-14 -0.612875597501535 -73.7307152180438 -38.2624714732611 130.015228193522
 450000000 -40.8054913817244 -158.24888558382 -9.64327466553287e-16 0 -0.61109419401432 -75.3490944481732 -38.1923935675486 129.845307556336
 460000000 -40.6786150111942 -165.573366788644 1.92865493310657e-15 0 -0.609005319867247 -76.9694361820987 -38.1084430589975 129.657094712756
 470000000 -40.5577149847295 -172.768107096963 0 6.36110936292703e-15 -0.606634877292497 -78.5917022264005 -38.0113412922167 129.439127912757
 480000000 -40.4447411501944 -179.840918341805 0 1.27222187258541e-14 -0.604006190625578 -80.2158507028365 -37.9020185056413 129.180522605735
 490000000 -40.3414061430323 173.20014266804 0 -1.90833280887811e-14 -0.601140259421526 -81.8418374922308 -37.781604473831 128.871113965474
 500000000 -40.2492116624468 166.347022852237 1.92865493310657e-15 -1.27222187258541e-14 -0.598055994683765 -83.4696173727666 -37.6514182300541 128.501594061532
 510000000 -40.1694757069298 159.591853361277 0 6.36110936292703e-15 -0.594770436955413 -85.099144906821 -37.5129570043345 128.063646702551
 520000000 -40.1033591429119 152.927072866206 -9.64327466553287e-16 0 -0.591298955963994 -86.730375122208 -37.367884273383 127.550083545197
 530000000 -40.0518906680156 146.345504160488 0 -6.36110936292703e-15 -0.58765543215696 -88.3632640263492 -37.218016528155 126.954985061994
 540000000 -40.0159897366607 139.840393437942 1.92865493310657e-15 -6.36110936292703e-15 -0.583852420890394 -89.9977689854836 -37.0653080488241 126.273849225322
 550000000 -39.9964873688829 133.405420176077 0 -9.54166404439055e-15 -0.579901300295524 -91.6338489955184 -36.9118326729891 125.503749167381
 560000000 -39.9941449964653 127.03468410063 0 -6.36110936292703e-15 -0.575812403991884 -93.2714648664359 -36.7597612990263 124.643498557333
 570000000 -40.0096716451022 120.722674367275 0 -3.18055468146352e-15 -0.571595139876744 -94.9105793382208 -36.6113337405484 123.693820041266
 580000000 -40.043739833845 114.464224923547 0 3.18055468146352e-15 -0.567258096222958 -96.5511571429687 -36.468823603786 122.657508013776
 590000000 -40.097000614613 108.254459010536 0 0 -0.562809136281778 -98.1931650250868 -36.3344951584164 121.539572626313
 600000000 -40.1700981913635 102.088724905266 3.85730986621315e-15 6.36110936292703e-15 -0.558255482526364 -99.8365717292258 -36.2105517576283 120.347347909734
 610000000 -40.2636845630421 95.9625242502313 0 3.18055468146352e-15 -0.553603791597057 -101.481347963707 -36.0990762412177 119.090544026316
 620000000 -40.378434636364 89.8714336188749 0 3.18055468146352e-15 -0.548860220927083 -103.127466345675 -36.0019648737366 117.781222905725
 630000000 -40.5150622616911 83.8110192718874 0 3.18055468146352e-15 -0.544030487943042 -104.774901332945 -35.920857601892 116.433678704571
 640000000 -40.6743376646732 77.776744311131 -1.92865493310657e-15 -3.18055468146352e-15 -0.539119922651377 -106.423629146499 -35.8570685636662 115.06421013845
 650000000 -40.8571067845897 71.7638665679471 1.92865493310657e-15 -3.18055468146352e-15 -0.534133514342081 -108.073627686743 -35.8115216041612 113.690780597844
 660000000 -41.0643130944888 65.7673244866115 -9.64327466553287e-16 0 -0.529075953065888 -109.72487644597 -35.7846958192902 112.332573079342
 670000000 -41.2970225763163 59.7816068688372 -9.64327466553287e-16 3.18055468146352e-15 -0.523951666471543 -111.377356418931 -35.7765857096017 111.009458572136
 680000000 -41.5564526658654 53.8006004717652 0 0 -0.518764852525908 -113.031050012968 -35.7866793798285 109.741406432226
 690000000 -41.8440061794906 47.8174068636256 1.92865493310657e-15 0 -0.513519508581667 -114.685940958829 -35.8139565355001 108.547871386306
 700000000 -42.161311501649 41.8241162785883 -9.64327466553287e-16 3.18055468146352e-15 -0.508219457204858 -116.342014222983 -35.856906121938 107.447192829191
 710000000 -42.5102706668451 35.8115209156985 -1.92865493310657e-15 3.18055468146352e-15 -0.502868369127526 -117.999255922049 -35.9135617043228 106.456037909764
 720000000 -42.8931174300238 29.7687423088419 0 -3.18055468146352e-15 -0.497469783648559 -119.657653239762 -35.9815514398229 105.588911707738
 730000000 -43.3124880005763 23.6827356225788 0 -6.36110936292703e-15 -0.492027126768349 -121.317194346761 -36.0581589476089 104.857747685771
 740000000 -43.7715078134122 17.5376156466002 -1.92865493310657e-15 0 -0.486543727309434 -122.977868323393 -36.1403915582769 104.271581979251
 750000000 -44.2738984684233 11.3137209255107 0 0 -0.481022831245843 -124.639665085602 -36.2250531621826 103.836308045679
 760000000 -44.8241095878478 4.98628714266187 -1.92865493310657e-15 -9.54166404439055e-15 -0.475467614437482 -126.302575313961 -36.3088198961113 103.55450499703
 770000000 -45.4274802669312 -1.47647310333256 1.92865493310657e-15 3.18055468146352e-15 -0.469881193942968 -127.966590385807 -36.3883178850904 103.425333792701
 780000000 -46.090432606159 -8.11621022159421 0 0 -0.46426663806366 -129.631702310425 -36.4602028988476 103.444499578756
 790000000 -46.8206919531608 -14.9887324532642 -1.92865493310657e-15 0 -0.458626975253698 -131.297903667204 -36.5212418909157 103.604284240365
 800000000 -47.6275060459074 -22.1706506677374 0 -1.59027734073176e-15 -0.452965202014987 -132.965187546667 -36.5683958956321 103.8936586649
 810000000 -48.5217757355823 -29.7698895983967 0 -4.77083202219528e-15 -0.447284289881927 -134.633547494243 -36.5989027485699 104.298487233416
 820000000 -49.5158556497906 -37.9426307180702 0 0 -0.441587191588425 -136.302977456673 -36.6103568001524 104.801836021539
 830000000 -50.6223844804718 -46.9208593382062 0 0 -0.43587684649883 -137.97347173093 -36.6007815532144 105.384390312045
 840000000 -51.8504803249947 -57.05631769487 -9.64327466553287e-16 -1.59027734073176e-15 -0.430156185374826 -139.645024915509 -36.568690358222 106.024976725974
 850000000 -53.1951091348467 -68.8839927559435 1.92865493310657e-15 0 -0.424428134541854 -141.317631863974 -36.513130272928 106.701172298778
 860000000 -54.6101766364438 -83.1806443883016 -1.92865493310657e-15 -3.18055468146352e-15 -0.418695619511358 -142.991287640652 -36.4337051025853 107.389969919984
 870000000 -55.9518071611988 -100.872231796956 0 0 -0.412961568108321 -144.665987478323 -36.3305754132792 108.068459823621
 880000000 -56.9128560186563 -122.365335446435 1.92865493310657e-15 0 -0.407228913148154 -146.341726737841 -36.2044356452603 108.714482812026
 890000000 -57.1135072850862 -146.153507584927 0 -3.18055468146352e-15 -0.401500594701601 -148.018500869543 -36.0564708732189 109.307213810313
 900000000 -56.4659897349694 -168.850800448668 -1.92865493310657e-15 -6.36110936292704e-15 -0.39577956198213 -149.696305376362 -35.8882977677453 109.827643636261
 910000000 -55.286671912983 171.960359863605 -9.64327466553287e-16 -1.59027734073176e-15 -0.390068774886131 -151.375135778565 -35.7018955261958 110.258940454875
 920000000 -53.9389728353679 156.437447696889 0 -1.59027734073176e-15 -0.384371205213038 -153.054987580003 -35.499532796091 110.586687356014
 930000000 -52.6247152745228 143.72495283311 1.92865493310657e-15 0 -0.378689837589144 -154.73585623582 -35.2836959767453 110.799005978072
 940000000 -51.4193690832362 132.961130102717 -1.92865493310657e-15 1.59027734073176e-15 -0.373027670116578 -156.417737121537 -35.0570229987544 110.886585996091
 950000000 -50.3397065237962 123.524709066603 0 -7.95138670365879e-16 -0.367387714766231 -158.10062550345 -34.8222450715044 110.842645605695
 960000000 -49.3807157898464 115.00445217216 1.92865493310657e-15 -7.95138670365879e-16 -0.36177299753167 -159.784516510275 -34.5821372694981 110.662848933864
 970000000 -48.5309441297436 107.131243864929 1.92865493310657e-15 0 -0.356186558359019 -161.469405106004 -34.3394774381787 110.345203413131
 980000000 -47.7781924895575 99.7264610662821 0 0 -0.350631450866446 -163.155286063904 -34.0970118810557 109.889954742508
 990000000 -47.1114008054184 92.668840152953 0 -1.59027734073176e-15 -0.345110741865388 -164.842153941636 -33.8574256960518 109.299490331408
 1000000000 -46.5211055773786 85.8740233705545 0 -1.59027734073176e-15 -0.339627510694549 -166.53000305744 -33.6233154503836 108.57825512422
 1010000000 -45.9993935902975 79.2819052306064 0 7.95138670365879e-16 -0.334184848376578 -168.218827467375 -33.3971620731083 107.73267725192
 1020000000 -45.5397033935118 72.8486665176672 0 -3.9756933518294e-16 -0.328785856606655 -169.908620943559 -33.1813023369916 106.771095671708
 1030000000 -45.1366044888423 66.5416409989047 0 -3.9756933518294e-16 -0.323433646581109 -171.599376953418 -32.9778980198841 105.703678305436
 1040000000 -44.7855984564312 60.3359224123694 -1.92865493310657e-15 -3.9756933518294e-16 -0.318131337674039 -173.291088639901 -32.788902692256 104.542317521276
 1050000000 -44.4829535091961 54.2120626487827 1.92865493310657e-15 -1.9878466759147e-16 -0.312882055968857 -174.98374880265 -32.6160269693968 103.300490333638
 1060000000 -44.2255720397131 48.1544686984224 0 0 -0.307688932651629 -176.677349880127 -32.4607038773245 101.993073439609
 1070000000 -44.0108869523515 42.1502560336353 -2.89298239965986e-15 -1.9878466759147e-16 -0.302555102272407 -178.371883932674 -32.324056588378 100.636107907284
 1080000000 -43.836781914621 36.1884052468952 1.92865493310657e-15 -4.96961668978674e-17 -0.297483700880819 179.932657373496 -32.2068710762811 99.2465143961875
 1090000000 -43.7015310976062 30.2591225748701 -9.64327466553287e-16 1.49088500693602e-16 -0.292477864041437 178.236282781373 -32.1095761492928 97.8417663295539
 1100000000 -43.6037547109903 24.3533378569886 -1.92865493310657e-15 -3.9756933518294e-16 -0.287540724734821 176.5390014573 -32.0322328333871 96.4395343710458
 1110000000 -43.5423873750593 18.4622937451168 0 3.9756933518294e-16 -0.282675411149619 174.84082300419 -31.9745342589619 95.0573198213309
 1120000000 -43.5166570110522 12.5771923575942 -1.92865493310657e-15 0 -0.277885044371188 173.14175747381 -31.9358161867663 93.7120963421705
 1130000000 -43.5260724487157 6.68887281612468 0 5.96354002774409e-16 -0.273172735972117 171.441815378126 -31.915077267262 92.4199783998642
 1140000000 -43.5704183454668 0.787496794368825 1.92865493310657e-15 3.97569335182939e-16 -0.2685415855101 169.741007699705 -31.9110072425644 91.195931211656
 1150000000 -43.6497562843052 -5.13777981935725 0 7.95138670365879e-16 -0.263994677938514 168.039345901167 -31.9220207155102 90.0535314867841
 1160000000 -43.7644310527619 -11.0991724508096 0 1.59027734073176e-15 -0.259535080935207 166.336841933667 -31.9462939052189 89.0047818967138
 1170000000 -43.9150810611345 -17.1106977102963 -9.64327466553287e-16 -1.9878466759147e-15 -0.255165842155089 164.633508244422 -31.9818019866701 88.0599760707557
 1180000000 -44.1026515481513 -23.1887014497289 -9.64327466553287e-16 0 -0.250889986412127 162.92935778325 -32.0263551118685 87.2276059201302
 1190000000 -44.3284084802108 -29.3525291834833 0 0 -0.246710512796486 161.224404008122 -32.0776319281222 86.5142998713462
 1200000000 -44.593949572208 -35.6253982232408 0 7.95138670365879e-16 -0.242630391732823 159.518660889717 -32.1332102246981 85.9247794226441
 1210000000 -44.9012060896545 -42.0355525034138 0 1.59027734073176e-15 -0.23865256198564 157.812142914973 -32.1905951379544 85.4618223095517
 1220000000 -45.252424027267 -48.6178109616229 1.92865493310657e-15 7.95138670365879e-16 -0.234779927617931 156.104865089611 -32.2472460300654 85.1262232462716
 1230000000 -45.6501040706802 -55.4156596055623 -1.92865493310657e-15 2.38541601109764e-15 -0.231015354909419 154.396842939647 -32.3006036515868 84.9167473348798
 1240000000 -46.0968631325256 -62.4840837317539 -9.64327466553287e-16 -1.59027734073176e-15 -0.227361669240875 152.688092511855 -32.3481194456062 84.8300763583904
 1250000000 -46.5951503449922 -69.893376813798 -9.64327466553287e-16 -6.36110936292704e-15 -0.223821651951124 150.978630373205 -32.3872888084199 84.8607537786743
 1260000000 -47.1466972228924 -77.734152118271 1.92865493310657e-15 -9.54166404439055e-15 -0.220398037173483 149.268473609241 -32.4156897618322 85.0011397367455
 1270000000 -47.7514901465554 -86.1235980196278 -1.92865493310657e-15 0 -0.217093508658563 147.557639821415 -32.4310278119131 85.2413919812395
 1280000000 -48.4059071622882 -95.2123423520084 0 4.77083202219528e-15 -0.213910696590465 145.846147123361 -32.4311868019224 85.5694916206007
 1290000000 -49.099470082874 -105.189400055752 0 3.18055468146352e-15 -0.210852174403495 144.134014136119 -32.4142843988595 85.9713330936261
 1300000000 -49.8095645153994 -116.278189619848 -1.92865493310657e-15 -3.18055468146352e-15 -0.207920455606702 142.421259982296 -32.3787296304303 86.4308951438247
 1310000000 -50.4940177273245 -128.708002395139 -1.92865493310657e-15 -1.59027734073176e-15 -0.205117990623598 140.707904279174 -32.323278812745 86.930503633908
 1320000000 -51.0839479764801 -142.635434406082 1.92865493310657e-15 3.18055468146352e-15 -0.202447163654497 138.993967130763 -32.2470855033732 87.4511881433676
 1330000000 -51.4851792115007 -157.999723123926 1.92865493310657e-15 -9.54166404439055e-15 -0.199910289568985 137.279469118819 -32.1497399763778 87.9731235821813
 1340000000 -51.6013534697668 -174.368078396316 1.92865493310657e-15 -9.54166404439055e-15 -0.197509610836048 135.56443129281 -32.0312942535292 88.4761372805456
 1350000000 -51.3788899592408 169.057951089871 1.92865493310657e-15 3.18055468146352e-15 -0.195247294499535 133.848875158863 -31.8922699090198 88.9402532079232
 1360000000 -50.8401807448971 153.160945207773 0 -1.59027734073176e-15 -0.193125429206435 132.132822667695 -31.7336475121413 89.3462399215243
 1370000000 -50.0691594978906 138.551057614059 -3.85730986621315e-15 1.59027734073176e-15 -0.191146022295568 130.416296201542 -31.5568383852287 89.6761285697907
 1380000000 -49.1656476897033 125.438148084303 -9.64327466553287e-16 0 -0.189310996954282 128.699318560107 -31.3636409934719 89.913671725784
 1390000000 -48.2108979171764 113.741227934367 1.92865493310657e-15 -6.36110936292703e-15 -0.187622189450488 126.981912945543 -31.1561854602962 90.0447218789494
 1400000000 -47.2582101480752 103.25153502629 0 -3.18055468146352e-15 -0.18608134644758 125.264102946498 -30.9368702526645 90.0575182337004
 1410000000 -46.3377956989764 93.7401964787058 0 3.18055468146352e-15 -0.184690122409293 123.54591252124 -30.7082949962926 89.9428800298807
 1420000000 -45.4646335493149 85.0050667927878 0 0 -0.183450077101771 121.827365979905 -30.4731927909214 89.6943122403624
 1430000000 -44.6447422851948 76.8827741906778 0 6.36110936292703e-15 -0.182362673199701 120.108487965873 -30.2343645152281 89.3080342371209
 1440000000 -43.8792321684847 69.2463324546053 0 3.18055468146352e-15 -0.181429274003283 118.389303436329 -29.9946166743156 88.7829436684355
 1450000000 -43.1666863925066 61.9985451541294 1.92865493310657e-15 -3.18055468146352e-15 -0.180651141272562 116.66983764203 -29.756703548427 88.1205268549743
 1460000000 -42.5044927771683 55.0652620832879 0 0 -0.180029433185411 114.950116106323 -29.523273877139 87.3247244248658
 1470000000 -41.8895647782932 48.3897350050942 0 9.54166404439055e-15 -0.179565202425095 113.230164603442 -29.2968221039743 86.401757758741
 1480000000 -41.3187199456696 41.9282381835409 0 0 -0.179259394403236 111.510009136144 -29.0796442817349 85.3599191136394
 1490000000 -40.7888700983618 35.6467768989502 -1.92865493310657e-15 0 -0.179112845623474 109.789675912713 -28.8737990110483 84.2093267897668
 1500000000 -40.2971096551772 29.5186435359673 1.92865493310657e-15 -3.18055468146352e-15 -0.1791262821909 108.069191323385 -28.6810741322536 82.9616467834435
 1510000000 -39.8407499706116 23.5226073566198 -1.92865493310657e-15 -3.18055468146352e-15 -0.179300318471888 106.348581916238 -28.5029601850151 81.6297840193656
 1520000000 -39.4173259768082 17.6415704275778 0 -9.54166404439055e-15 -0.179635455908682 104.627874372605 -28.3406317803372 80.2275490885611
 1530000000 -39.0245894692181 11.8615651983886 -1.92865493310657e-15 3.18055468146352e-15 -0.180132081992545 102.907095482051 -28.1949379256605 78.7693097671818
 1540000000 -38.6604967389204 6.1710032550901 -1.92865493310657e-15 0 -0.18079046939893 101.186272116976 -28.0664019899618 77.2696396545213
 1550000000 -38.3231945760943 0.560109993523798 1.92865493310657e-15 -3.18055468146352e-15 -0.18161077528773 99.4654312068909 -27.9552314346764 75.7429782925225
 1560000000 -38.0110066362339 -4.97950188857785 1.92865493310657e-15 -6.36110936292703e-15 -0.182593040771104 97.744599712429 -27.8613367578026 74.2033175784442
 1570000000 -37.7224210480323 -10.4551542699575 1.92865493310657e-15 -6.36110936292703e-15 -0.183737190550957 96.0238045991427 -27.7843584185988 72.6639279598598
 1580000000 -37.456079545637 -15.8733458851461 0 3.18055468146352e-15 -0.185043032727797 94.3030728111466 -27.7236999428905 71.1371349778614
 1590000000 -37.2107681014747 -21.2399335182384 1.92865493310657e-15 -1.27222187258541e-14 -0.186510258781913 92.5824312446643 -27.6785650408574 69.634152677827
 1600000000 -36.9854088907555 -26.5602659556288 0 1.27222187258541e-14 -0.188138443727643 90.8619067215346 -27.647996443086 68.1649758873951
 1610000000 -36.7790533619358 -31.8392811669983 -1.92865493310657e-15 3.18055468146352e-15 -0.189927046440828 89.1415259627385 -27.6309142718064 66.7383290316175
 1620000000 -36.5908761770837 -37.081574719455 -9.64327466553287e-16 -1.27222187258541e-14 -0.191875410159076 87.4213155620022 -27.6261520683113 65.3616655537167
 1630000000 -36.4201697984984 -42.291445613739 -9.64327466553287e-16 0 -0.193982763153985 85.7013019595358 -27.6324890267529 64.0412094650701
 1640000000 -36.266339519913 -47.4729243832565 1.92865493310657e-15 0 -0.196248219573981 83.9815114159645 -27.6486774652113 62.7820291607568
 1650000000 -36.1288987651479 -52.6297872927019 0 -6.36110936292703e-15 -0.198670780455944 82.2619699865081 -27.6734650324779 61.5881333140837
 1660000000 -36.0074645009683 -57.7655597267468 0 0 -0.201249334903272 80.5427034954668 -27.7056115567435 60.4625791840575
 1670000000 -35.9017526330585 -62.8835113100925 -1.92865493310657e-15 6.36110936292704e-15 -0.203982661427624 78.8237375110651 -27.7439007645476 59.4075847567285
 1680000000 -35.8115732747733 -67.9866449036145 0 -1.27222187258541e-14 -0.206869429451061 77.1050973207104 -27.7871473280801 58.4246375223014
 1690000000 -35.736825798675 -73.0776813437621 -1.92865493310657e-15 1.27222187258541e-14 -0.209908200964933 75.3868079067157 -27.834199843768 57.5145941372195
 1700000000 -35.677493602213 -78.1590416062757 0 6.36110936292703e-15 -0.213097432341404 73.6688939225382 -27.883940421336 56.6777665704809
 1710000000 -35.6336385427315 -83.2328279570906 -9.64327466553287e-16 -6.36110936292704e-15 -0.216435476292956 71.951379669582 -27.9352815905876 55.9139914897277
 1720000000 -35.6053950246155 -88.3008055808256 0 6.36110936292703e-15 -0.219920583975138 70.2342890746114 -27.9871612335539 55.2226805680953
 1730000000 -35.5929637538426 -93.3643861293656 1.92865493310657e-15 6.36110936292703e-15 -0.223550907227102 68.5176456678204 -28.0385362409558 54.6028500985533
 1740000000 -35.5966052129914 -98.4246145888384 1.92865493310657e-15 6.36110936292703e-15 -0.227324500944413 66.8014725615981 -28.0883755891744 54.0531288359364
 1750000000 -35.616632952732 -103.482160802634 0 1.90833280887811e-14 -0.231239325578011 65.0857924300326 -28.13565354821 53.5717434222709
 1760000000 -35.6534068431323 -108.537316892513 0 6.36110936292703e-15 -0.23529324975325 63.3706274891898 -28.1793437690208 53.1564811828823
 1770000000 -35.707326478144 -113.59000167381 0 -1.27222187258541e-14 -0.239484053002297 61.6559994782007 -28.2184150618208 52.8046306191246
 1780000000 -35.7788249770833 -118.639772953493 1.92865493310657e-15 6.36110936292703e-15 -0.24380942860323 59.9419296411912 -28.2518297611775 52.5129006893022
 1790000000 -35.8683634750231 -123.685848327171 -9.64327466553287e-16 0 -0.248266986518778 58.2284387100819 -28.2785456676884 52.2773210878752
 1800000000 -35.9764266369285 -128.727134756751 0 6.36110936292703e-15 -0.252854256427504 56.5155468882867 -28.2975226393613 52.0931273210221
 1810000000 -36.1035195654876 -133.762266827048 -1.92865493310657e-15 -1.27222187258541e-14 -0.257568690840101 54.80327383533 -28.3077349478506 51.9546365215072
 1820000000 -36.2501664983257 -138.789653168387 0 0 -0.262407668293362 53.0916386524071 -28.3081904734109 51.8551226723731
 1830000000 -36.416911706443 -143.807530121841 0 0 -0.267368496614084 51.3806598689033 -28.2979576358859 51.7867031353226
 1840000000 -36.6043230141789 -148.814021347559 0 0 -0.272448416245471 49.6703554298872 -28.2762005901171 51.7402518652867
 1850000000 -36.8129983661097 -153.807201768872 -1.92865493310657e-15 0 -0.277644603628082 47.9607426845883 -28.2422226003975 51.7053579899529
 1860000000 -37.0435758752687 -158.785164037743 1.92865493310657e-15 -1.27222187258541e-14 -0.282954174627838 46.2518383758708 -28.1955166177855 51.6703508625153
 1870000000 -37.2967478101344 -163.746085625185 0 -1.27222187258541e-14 -0.288374188003205 44.5436586307073 -28.1358209248648 51.6224133696704
 1880000000 -37.5732790285492 -168.688294699991 -1.92865493310657e-15 -1.27222187258541e-14 -0.293901648903939 42.8362189516552 -28.0631763562344 51.5478031995419
 1890000000 -37.8740304624075 -173.610333166287 0 -2.54444374517081e-14 -0.299533512393788 41.1295342093373 -27.9779802004813 51.4321960353861
 1900000000 -38.1999884197176 -178.511015582158 0 0 -0.305266686989652 39.4236186359248 -27.8810306737285 51.261154690577