# Hz S DB R 50
!Touchstone multiport model file <C:\work\PySI\TestSignalIntegrity\OysterSimulation\ResampledSimbeor\Short6.s1p>
!Created on 22 Aug 18, at 17:55:40.
!Created with Simbeor THz 2018.01(64bit) of Simberian Inc. built on Jul 20 2018

!Output from MultiportParameters of Simbeor.
!Multiport parameters: DataOrigin=Simulation DataOriginName="Project(1).Short6_resampled.LNS"
!RESAMPLED_RCM: Max_RMS_Error=0.0151918; FrqLow=0; FrqHigh=4e+10; MaxTimeResolution=1.25e-11; PassivityState=1; ReciprocityState=1; DataSource=" uuÂn"
!RATIONAL COMPACTOR: Precision: Normal; Extract Delay: ON; Extrapolate to DC: ON; Extrapolate to Infinity: OFF; Enforce Passivity: ON; Enforce Reciprocity: ON; Band Limit Factor: 1; Auto-Adjust Config: OFF

!Uncomment the following lines with keywords in square brakets to support IBIS forum specification 2.0.
![Version] 2.0 !This line should be the first in file, preceeding the line starting with #.
![Number of Ports] 1
![Number of Frequencies] 8001
![Reference] 50

!!!!Multiport descriptor profile: InputCount=1 TotalPortCount=1
!DescriptorOutline={DescriptorType=SMatrix InputSpace=Terminal NormalizationType=CommonZo NormalizationCommonZo=50 Ohm OutputFormat=DBMagnitudeAngle}
!InputProfile={Name="IO1" IsTLineInput=False InputNumber=1 PortCount=1 FirstPortNumber=1 InputSpace=Terminal BlockType=SBlock NormalizationType=CommonZo Zo=50}

!!!Global port number to input_name/local_port_number correspondence:
!Port 1 -> "IO1"/local_port_1 (terminal)
!!!!End of descriptor profile.

!Frequency Hz 20.0*log(|S[1,1]|) arg(S[1,1])
 0 -1.3500584531746e-14 180
 10000000 -9.50627024000511e-05 179.683332043204
 20000000 -0.000399607363876402 179.366077266986
 30000000 -0.000970423499476983 179.047724221458
 40000000 -0.00189774052241757 178.727910921097
 50000000 -0.00329814362070557 178.406494646743
 60000000 -0.00530402808161451 178.083611412741
 70000000 -0.00804958502517748 177.759715765099
 80000000 -0.0116540676377935 177.435589591419
 90000000 -0.0162041127761266 177.112309777156
 100000000 -0.0217378620175938 176.791170134895
 110000000 -0.0282340707274458 176.473562756779
 120000000 -0.0356089062798276 176.160835204201
 130000000 -0.0437216417496578 175.854148440365
 140000000 -0.0523883587835294 175.554362087552
 150000000 -0.0614008468416965 175.261967073421
 160000000 -0.0705468579408054 174.977073369987
 170000000 -0.0796280567684538 174.699447196348
 180000000 -0.0884731606952908 174.428582473669
 190000000 -0.0969453139916242 174.163787824374
 200000000 -0.10494410499835 173.904272454589
 210000000 -0.112403478516638 173.649219518651
 220000000 -0.119287074600335 173.397841473487
 230000000 -0.125582387719566 173.149416738328
 240000000 -0.131294792366831 172.903309998727
 250000000 -0.136442091823513 172.658979842901
 260000000 -0.141049915419906 172.415977573897
 270000000 -0.145148053199212 172.173940529624
 280000000 -0.148767672900877 171.932582473718
 290000000 -0.151939292317682 171.691682846424
 300000000 -0.154691356641262 171.451076009241
 310000000 -0.157049275294956 171.210641117143
 320000000 -0.159034791606964 170.97029289875
 330000000 -0.160665582510959 170.729973389627
 340000000 -0.161955009374783 170.489644515171
 350000000 -0.162911962910331 170.249281329153
 360000000 -0.163540764481722 170.008865660251
 370000000 -0.163841103573317 169.768379886692
 380000000 -0.163808007835194 169.527800539583
 390000000 -0.163431859437303 169.287091425443
 400000000 -0.16269849103311 169.046195960708
 410000000 -0.161589418048279 168.80502843526
 420000000 -0.160082292541355 168.563463986825
 430000000 -0.158151697909773 168.321327202862
 440000000 -0.155770441648556 168.078379513586
 450000000 -0.152911539907494 167.83430595354
 460000000 -0.149551111178768 167.588702508121
 470000000 -0.145672386269682 167.341066167035
 480000000 -0.141270965537794 167.090790957945
 490000000 -0.136361270209187 166.837174474321
 500000000 -0.130983801541744 166.57944035518
 510000000 -0.125212325956041 166.316782132878
 520000000 -0.119159503307609 166.04843190011
 530000000 -0.11297894589293 165.77375249087
 540000000 -0.106861547686044 165.492344205458
 550000000 -0.101024519015878 165.204148037634
 560000000 -0.0956931024685178 164.909520420375
 570000000 -0.0910771951466175 164.609254331527
 580000000 -0.0873472663429794 164.304531302452
 590000000 -0.0846149576054603 163.996807012447
 600000000 -0.0829228569014188 163.687652974952
 610000000 -0.0822453533782237 163.37858944651
 620000000 -0.0824993236531305 163.070944541025
 630000000 -0.0835610352782982 162.765762767701
 640000000 -0.0852848732046112 162.463769400605
 650000000 -0.0875202078200999 162.165382636475
 660000000 -0.0901242335403074 161.870757676789
 670000000 -0.0929701484907138 161.579845859729
 680000000 -0.0959511450088334 161.292455385065
 690000000 -0.0989812212607611 161.008305173973
 700000000 -0.101993920800985 160.727067975881
 710000000 -0.104939947507048 160.448402083826
 720000000 -0.107784349208755 160.171972873942
 730000000 -0.110503714650429 159.897466160984
 740000000 -0.113083630232244 159.624595460468
 750000000 -0.115516504781021 159.353104999903
 760000000 -0.117799784476569 159.082769947076
 770000000 -0.119934532528956 158.813394945989
 780000000 -0.121924326320602 158.544811727017
 790000000 -0.123774418353797 158.276876304064
 800000000 -0.125491109426349 158.00946608451
 810000000 -0.127081288500576 157.742477086411
 820000000 -0.128552101090296 157.475821368771
 830000000 -0.129910715245155 157.209424723234
 840000000 -0.131164160691831 156.943224639787
 850000000 -0.132319222159889 156.677168538076
 860000000 -0.133382372369194 156.411212244614
 870000000 -0.134359733685089 156.145318690934
 880000000 -0.135257060197244 155.879456806327
 890000000 -0.136079734092127 155.613600579508
 900000000 -0.136832771796824 155.347728265463
 910000000 -0.137520836585472 155.081821716155
 920000000 -0.138148255248589 154.81586581633
 930000000 -0.138719037103131 154.549848008187
 940000000 -0.139236894122673 154.283757890966
 950000000 -0.139705261336972 154.017586883604
 960000000 -0.140127316920998 153.751327940413
 970000000 -0.140506001590573 153.484975311325
 980000000 -0.140844037064326 153.218524339578
 990000000 -0.141143943453436 152.951971290872
 1000000000 -0.141408055512671 152.685313208986
 1010000000 -0.141638537736461 152.418547793664
 1020000000 -0.141837398317694 152.151673297239
 1030000000 -0.142006502009477 151.884688437064
 1040000000 -0.142147581944091 151.61759232128
 1050000000 -0.142262250471473 151.350384385829
 1060000000 -0.142352009083399 151.083064341
 1070000000 -0.142418257490436 150.815632126028
 1080000000 -0.142462301917498 150.548087870521
 1090000000 -0.142485362681624 150.280431861678
 1100000000 -0.14248858111215 150.012664516429
 1110000000 -0.142473025869943 149.74478635776
 1120000000 -0.142439698718117 149.476797994589
 1130000000 -0.142389539793225 149.20870010468
 1140000000 -0.142323432421312 148.940493420139
 1150000000 -0.142242207520172 148.672178715117
 1160000000 -0.142146647625098 148.403756795396
 1170000000 -0.142037490572386 148.135228489581
 1180000000 -0.141915432871553 147.866594641678
 1190000000 -0.141781132794632 147.597856104837
 1200000000 -0.141635213208078 147.329013736109
 1210000000 -0.141478264170452 147.060068392068
 1220000000 -0.141310845317079 146.791020925167
 1230000000 -0.141133488050644 146.521872180728
 1240000000 -0.140946697554966 146.252622994475
 1250000000 -0.140750954647709 145.983274190527
 1260000000 -0.140546717486137 145.713826579792
 1270000000 -0.140334423138698 145.444280958698
 1280000000 -0.140114489034197 145.17463810821
 1290000000 -0.139887314299028 144.904898793104
 1300000000 -0.139653280992068 144.635063761439
 1310000000 -0.139412755245868 144.365133744216
 1320000000 -0.139166088322112 144.095109455191
 1330000000 -0.138913617588485 143.824991590807
 1340000000 -0.138655667423381 143.554780830246
 1350000000 -0.138392550054479 143.284477835561
 1360000000 -0.13812456633655 143.014083251896
 1370000000 -0.137852006473374 142.743597707758
 1380000000 -0.137575150688275 142.473021815351
 1390000000 -0.137294269847339 142.202356170943
 1400000000 -0.137009626039057 141.93160135528
 1410000000 -0.13672147311379 141.660757934015
 1420000000 -0.13643005718613 141.389826458169
 1430000000 -0.136135617103066 141.1188074646
 1440000000 -0.135838384880508 140.847701476489
 1450000000 -0.13553858611056 140.576509003836
 1460000000 -0.135236440341759 140.305230543952
 1470000000 -0.134932161434203 140.033866581967
 1480000000 -0.134625957891509 139.762417591323
 1490000000 -0.134318033171258 139.490884034279
 1500000000 -0.13400858597537 139.219266362401
 1510000000 -0.13369781052204 138.947565017054
 1520000000 -0.133385896800356 138.675780429886
 1530000000 -0.133073030808924 138.403913023306
 1540000000 -0.132759394779575 138.131963210949
 1550000000 -0.132445167387174 137.859931398142
 1560000000 -0.13213052394651 137.587817982353
 1570000000 -0.131815636597121 137.315623353634
 1580000000 -0.131500674476837 137.043347895058
 1590000000 -0.131185803884878 136.770991983139
 1600000000 -0.130871188435077 136.498555988247
 1610000000 -0.130556989199978 136.226040275016
 1620000000 -0.13024336484634 135.953445202734
 1630000000 -0.129930471762595 135.680771125735
 1640000000 -0.129618464178818 135.408018393767
 1650000000 -0.129307494279649 135.135187352366
 1660000000 -0.128997712310604 134.862278343207
 1670000000 -0.128689266678166 134.589291704457
 1680000000 -0.128382304044103 134.31622777111
 1690000000 -0.12807696941428 134.043086875319
 1700000000 -0.127773406222388 133.76986934672
 1710000000 -0.12747175640879 133.496575512742
 1720000000 -0.127172160494841 133.223205698911
 1730000000 -0.126874757652926 132.949760229155
 1740000000 -0.126579685772494 132.676239426083
 1750000000 -0.126287081522232 132.402643611276
 1760000000 -0.125997080408747 132.128973105559
 1770000000 -0.125709816831726 131.855228229265
 1780000000 -0.12542542413603 131.581409302502
 1790000000 -0.125144034660726 131.307516645403
 1800000000 -0.124865779785193 131.033550578379
 1810000000 -0.124590789972655 130.759511422353
 1820000000 -0.124319194811025 130.485399499004
 1830000000 -0.124051123051426 130.211215130991
 1840000000 -0.123786702644334 129.936958642181
 1850000000 -0.123526060773639 129.662630357866
 1860000000 -0.123269323888488 129.388230604977
 1870000000 -0.123016617733342 129.113759712294
 1880000000 -0.122768067375997 128.839218010649
 1890000000 -0.122523797233982 128.564605833123
 1900000000 -0.122283931099124 128.289923515244
 1910000000 -0.122048592160612 128.015171395176
 1920000000 -0.121817903026475 127.740349813902
 1930000000 -0.121591985743585 127.465459115409
 1940000000 -0.121370961816345 127.190499646867
 1950000000 -0.121154952223897 126.915471758797
 1960000000 -0.120944077436233 126.640375805246
 1970000000 -0.120738457428925 126.365212143955
 1980000000 -0.120538211696821 126.089981136516
 1990000000 -0.120343459266528 125.814683148539
 2000000000 -0.120154318707857 125.539318549803
 2010000000 -0.119970908144281 125.263887714411
 2020000000 -0.119793345262319 124.988391020945
 2030000000 -0.119621747320066 124.712828852606
 2040000000 -0.119456231154745 124.437201597366
 2050000000 -0.119296913189432 124.161509648104
 2060000000 -0.11914390943884 123.885753402749
 2070000000 -0.118997335514454 123.609933264418
 2080000000 -0.118857306628708 123.334049641548
 2090000000 -0.118723937598505 123.058102948026
 2100000000 -0.118597342847978 122.782093603325
 2110000000 -0.118477636410533 122.506022032627
 2120000000 -0.118364931930193 122.229888666948
 2130000000 -0.118259342662319 121.953693943265
 2140000000 -0.118160981473636 121.677438304633
 2150000000 -0.11806996084167 121.401122200306
 2160000000 -0.117986392853504 121.124746085857
 2170000000 -0.117910389204056 120.848310423287
 2180000000 -0.117842061193666 120.571815681146
 2190000000 -0.117781519725178 120.295262334639
 2200000000 -0.117728875300459 120.018650865741
 2210000000 -0.117684238016364 119.741981763299
 2220000000 -0.117647717560212 119.465255523147
 2230000000 -0.117619423204696 119.188472648205
 2240000000 -0.117599463802315 118.911633648584
 2250000000 -0.117587947779343 118.63473904169
 2260000000 -0.117584983129253 118.357789352324
 2270000000 -0.117590677405678 118.08078511278
 2280000000 -0.117605137714956 117.803726862942
 2290000000 -0.117628470708127 117.526615150385
 2300000000 -0.117660782572545 117.249450530465
 2310000000 -0.117702179023001 116.972233566414
 2320000000 -0.117752765292428 116.694964829435
 2330000000 -0.117812646122135 116.417644898787
 2340000000 -0.117881925751659 116.140274361883
 2350000000 -0.117960707908107 115.86285381437
 2360000000 -0.118049095795186 115.585383860223
 2370000000 -0.118147192081681 115.307865111827
 2380000000 -0.118255098889629 115.030298190061
 2390000000 -0.118372917782014 114.752683724385
 2400000000 -0.118500749750059 114.47502235292
 2410000000 -0.118638695200123 114.197314722528
 2420000000 -0.11878685394016 113.919561488894
 2430000000 -0.118945325165846 113.641763316604
 2440000000 -0.119114207446159 113.363920879219
 2450000000 -0.119293598708689 113.086034859358
 2460000000 -0.119483596224539 112.808105948765
 2470000000 -0.119684296592679 112.530134848389
 2480000000 -0.11989579572409 112.252122268452
 2490000000 -0.120118188825317 111.974068928525
 2500000000 -0.120351570381833 111.695975557591
 2510000000 -0.120596034140785 111.417842894122
 2520000000 -0.12085167309345 111.139671686139
 2530000000 -0.121118579457288 110.861462691282
 2540000000 -0.121396844657592 110.583216676877
 2550000000 -0.12168655930864 110.304934419994
 2560000000 -0.121987813194563 110.026616707512
 2570000000 -0.122300695249722 109.748264336182
 2580000000 -0.122625293538716 109.469878112684
 2590000000 -0.122961695235965 109.191458853683
 2600000000 -0.123309986604843 108.913007385893
 2610000000 -0.123670252976469 108.634524546124
 2620000000 -0.124042578727999 108.35601118134
 2630000000 -0.124427047260581 108.077468148711
 2640000000 -0.12482374097678 107.798896315666
 2650000000 -0.125232741257686 107.520296559934
 2660000000 -0.125654128439545 107.241669769603
 2670000000 -0.126087981789939 106.963016843157
 2680000000 -0.126534379483559 106.684338689524
 2690000000 -0.126993398577539 106.405636228118
 2700000000 -0.127465114986371 106.12691038888
 2710000000 -0.127949603456329 105.848162112315
 2720000000 -0.12844693753947 105.569392349534
 2730000000 -0.128957189567218 105.290602062284
 2740000000 -0.129480430623478 105.011792222982
 2750000000 -0.130016730517241 104.73296381475
 2760000000 -0.13056615775484 104.45411783144
 2770000000 -0.131128779511629 104.175255277664
 2780000000 -0.131704661603311 103.896377168816
 2790000000 -0.132293868456727 103.617484531098
 2800000000 -0.132896463080163 103.338578401536
 2810000000 -0.133512507033263 103.059659828004
 2820000000 -0.134142060396387 102.780729869233
 2830000000 -0.134785181739527 102.501789594829
 2840000000 -0.135441928090731 102.22284008528
 2850000000 -0.136112354904103 101.943882431968
 2860000000 -0.136796516027167 101.664917737168
 2870000000 -0.137494463667919 101.385947114056
 2880000000 -0.138206248361258 101.106971686705
 2890000000 -0.138931918934952 100.827992590083
 2900000000 -0.139671522475197 100.549010970045
 2910000000 -0.140425104291505 100.270027983326
 2920000000 -0.141192707881233 99.9910447975214
 2930000000 -0.141974374893567 99.7120625910797
 2940000000 -0.142770145092984 99.4330825532751
 2950000000 -0.143580056322149 99.1541058841875
 2960000000 -0.144404144464502 98.8751337946749
 2970000000 -0.145242443406049 98.5961675063421
 2980000000 -0.146094984996907 98.3172082515066
 2990000000 -0.146961799012146 98.0382572731594
 3000000000 -0.147842913112235 97.7593158249227
 3010000000 -0.148738352802896 97.4803851710026
 3020000000 -0.149648141394502 97.2014665861378
 3030000000 -0.150572299960933 96.9225613555438
 3040000000 -0.151510847297893 96.6436707748529
 3050000000 -0.15246379988079 96.3647961500485
 3060000000 -0.153431171822024 96.0859387973957
 3070000000 -0.154412974827809 95.807100043366
 3080000000 -0.155409218154469 95.5282812245573
 3090000000 -0.156419908564263 95.249483687609
 3100000000 -0.157445050280634 94.9707087891103
 3110000000 -0.158484644943052 94.6919578955048
 3120000000 -0.159538691561278 94.4132323829878
 3130000000 -0.160607186469201 94.1345336373987
 3140000000 -0.161690123278124 93.8558630541066
 3150000000 -0.162787492829669 93.5772220378907
 3160000000 -0.163899283148068 93.2986120028129
 3170000000 -0.165025479392097 93.0200343720851
 3180000000 -0.166166063806513 92.7414905779295
 3190000000 -0.167321015673052 92.4629820614312
 3200000000 -0.168490311260891 92.1845102723849
 3210000000 -0.169673923776871 91.9060766691335
 3220000000 -0.170871823315058 91.6276827183995
 3230000000 -0.172083976806074 91.3493298951087
 3240000000 -0.173310347965937 91.0710196822063
 3250000000 -0.174550897244503 90.7927535704647
 3260000000 -0.175805581773616 90.5145330582829
 3270000000 -0.177074355314783 90.2363596514781
 3280000000 -0.17835716820657 89.958234863068
 3290000000 -0.179653967311678 89.6801602130444
 3300000000 -0.180964695963687 89.4021372281379
 3310000000 -0.182289293913418 89.1241674415736
 3320000000 -0.183627697275223 88.8462523928162
 3330000000 -0.184979838472795 88.5683936273068
 3340000000 -0.186345646184946 88.2905926961887
 3350000000 -0.187725045290994 88.0128511560236
 3360000000 -0.189117956816116 87.7351705684968
 3370000000 -0.190524297876451 87.4575525001129
 3380000000 -0.191943981624093 87.1799985218793
 3390000000 -0.193376917192036 86.9025102089796
 3400000000 -0.194823009638945 86.6250891404351
 3410000000 -0.19628215989398 86.3477368987552
 3420000000 -0.19775426470155 86.0704550695759
 3430000000 -0.199239216566127 85.7932452412857
 3440000000 -0.200736903697109 85.5161090046403
 3450000000 -0.202247209953812 85.2390479523639
 3460000000 -0.203770014790567 84.9620636787381
 3470000000 -0.205305193201978 84.6851577791779
 3480000000 -0.206852615668531 84.4083318497947
 3490000000 -0.208412148102299 84.1315874869452
 3500000000 -0.209983651793084 83.8549262867671
 3510000000 -0.21156698335492 83.5783498447012
 3520000000 -0.213161994672956 83.3018597549984
 3530000000 -0.214768532850799 83.0254576102137
 3540000000 -0.216386440158459 82.7491450006844
 3550000000 -0.21801555398079 82.4729235139938
 3560000000 -0.219655706766668 82.196794734421
 3570000000 -0.221306725978766 81.9207602423736
 3580000000 -0.222968434044207 81.6448216138065
 3590000000 -0.224640648305972 81.3689804196244
 3600000000 -0.22632318097528 81.0932382250686
 3610000000 -0.228015839084895 80.8175965890878
 3620000000 -0.229718424443462 80.542057063693
 3630000000 -0.231430733591091 80.2666211932954
 3640000000 -0.233152557755964 79.9912905140288
 3650000000 -0.234883682812387 79.7160665530538
 3660000000 -0.236623889240144 79.4409508278472
 3670000000 -0.238372952085266 79.1659448454728
 3680000000 -0.240130640922404 78.8910501018358
 3690000000 -0.24189671981883 78.6162680809203
 3700000000 -0.243670947300113 78.3416002540088
 3710000000 -0.245453076317692 78.0670480788854
 3720000000 -0.247242854218289 77.7926129990206
 3730000000 -0.249040022715398 77.5182964427397
 3740000000 -0.250844317862909 77.2440998223723
 3750000000 -0.25265547003092 76.9700245333863
 3760000000 -0.25447320388389 76.6960719535025
 3770000000 -0.256297238361303 76.4222434417931
 3780000000 -0.258127286660831 76.1485403377623
 3790000000 -0.259963056224223 75.8749639604094
 3800000000 -0.261804248725945 75.6015156072756
 3810000000 -0.263650560064779 75.3281965534725
 3820000000 -0.265501680358488 75.0550080506942
 3830000000 -0.267357293941552 74.7819513262135
 3840000000 -0.26921707936632 74.5090275818598
 3850000000 -0.271080709407491 74.2362379929824
 3860000000 -0.272947851070204 73.9635837073963
 3870000000 -0.274818165601761 73.6910658443134
 3880000000 -0.276691308507266 73.4186854932579
 3890000000 -0.278566929569144 73.1464437129658
 3900000000 -0.280444672870704 72.8743415302711
 3910000000 -0.282324176824139 72.6023799389768
 3920000000 -0.284205074202637 72.3305598987126
 3930000000 -0.286086992177214 72.0588823337787
 3940000000 -0.28796955235811 71.787348131978
 3950000000 -0.289852370841002 71.5159581434349
 3960000000 -0.291735058258105 71.2447131794037
 3970000000 -0.293617219834465 70.9736140110654
 3980000000 -0.295498455449382 70.702661368315
 3990000000 -0.297378359703264 70.4318559385391
 4000000000 -0.299256521989899 70.1611983653851
 4010000000 -0.301132526574476 69.890689247523
 4020000000 -0.303005952677364 69.6203291374
 4030000000 -0.30487637456374 69.35011853999
 4040000000 -0.306743361639426 69.0800579115376
 4050000000 -0.30860647855275 68.810147658299
 4060000000 -0.310465285302881 68.5403881352802
 4070000000 -0.312319337354542 68.2707796449736
 4080000000 -0.314168185759266 68.0013224360949
 4090000000 -0.316011377283504 67.7320167023202
 4100000000 -0.31784845454334 67.4628625810268
 4110000000 -0.319678956146335 67.1938601520368
 4120000000 -0.321502416840275 66.9250094363664
 4130000000 -0.323318367669101 66.6563103949818
 4140000000 -0.325126336136194 66.3877629275639
 4150000000 -0.326925846374744 66.1193668712819
 4160000000 -0.328716419325752 65.8511219995799
 4170000000 -0.330497572923482 65.5830280209753
 4180000000 -0.33226882228837 65.3150845778734
 4190000000 -0.334029679927688 65.0472912453981
 4200000000 -0.33577965594383 64.7796475302421
 4210000000 -0.337518258250293 64.512152869537
 4220000000 -0.339244992795447 64.2448066297466
 4230000000 -0.340959363794091 63.9776081055842
 4240000000 -0.342660873966774 63.7105565189578
 4250000000 -0.344349024786938 63.4436510179426
 4260000000 -0.346023316735818 63.1768906757854
 4270000000 -0.34768324956513 62.9102744899421
 4280000000 -0.349328322567452 62.6438013811504
 4290000000 -0.350958034854342 62.3774701925397
 4300000000 -0.352571885642045 62.1112796887816
 4310000000 -0.354169374544677 61.8452285552826
 4320000000 -0.355750001875006 61.5793153974202
 4330000000 -0.357313268952424 61.3135387398276
 4340000000 -0.358858678418258 61.0478970257266
 4350000000 -0.360385734558106 60.782388616312
 4360000000 -0.361893943631129 60.5170117901911
 4370000000 -0.363382814206089 60.2517647428786
 4380000000 -0.364851857503965 59.9866455863509
 4390000000 -0.366300587746945 59.7216523486614
 4400000000 -0.367728522513555 59.4567829736198
 4410000000 -0.369135183099649 59.1920353205367
 4420000000 -0.370520094885157 58.9274071640376
 4430000000 -0.371882787706019 58.6628961939461
 4440000000 -0.373222796231359 58.3985000152412
 4450000000 -0.374539660345262 58.1342161480894
 4460000000 -0.375832925533035 57.8700420279536
 4470000000 -0.377102143271564 57.6059750057821
 4480000000 -0.378346871423261 57.342012348279
 4490000000 -0.379566674633319 57.0781512382577
 4500000000 -0.380761124729932 56.8143887750804
 4510000000 -0.381929801126909 56.5507219751843
 4520000000 -0.383072291228207 56.2871477726975
 4530000000 -0.384188190834193 56.0236630201453
 4540000000 -0.385277104548804 55.7602644892482
 4550000000 -0.386338646187321 55.496948871815
 4560000000 -0.387372439184169 55.233712780729
 4570000000 -0.388378117000235 54.9705527510327
 4580000000 -0.389355323529134 54.7074652411076
 4590000000 -0.390303713501913 54.4444466339538
 4600000000 -0.391222952889466 54.1814932385682
 4610000000 -0.392112719302336 53.9186012914217
 4620000000 -0.392972702386995 53.6557669580377
 4630000000 -0.393802604218243 53.39298633467
 4640000000 -0.39460213968697 53.1302554500822
 4650000000 -0.395371036882658 52.8675702674268
 4660000000 -0.396109037470011 52.6049266862252
 4670000000 -0.396815897059156 52.3423205444476
 4680000000 -0.397491385568492 52.0797476206921
 4690000000 -0.398135287579909 51.8172036364621
 4700000000 -0.398747402685361 51.5546842585421
 4710000000 -0.399327545824385 51.2921851014685
 4720000000 -0.399875547611854 51.0297017300971
 4730000000 -0.400391254655126 50.7672296622623
 4740000000 -0.400874529860286 50.5047643715288
 4750000000 -0.401325252726499 50.2423012900328
 4760000000 -0.401743319628004 49.9798358114097
 4770000000 -0.402128644083113 49.7173632938077
 4780000000 -0.402481157009606 49.4548790629826
 4790000000 -0.40280080696576 49.1923784154722
 4800000000 -0.403087560376659 48.9298566218475
 4810000000 -0.403341401745092 48.6673089300353
 4820000000 -0.403562333846379 48.4047305687123
 4830000000 -0.403750377906761 48.1421167507625
 4840000000 -0.403905573764791 47.8794626767988
 4850000000 -0.404027980015077 47.6167635387405
 4860000000 -0.404117674134152 47.3540145234454
 4870000000 -0.404174752587832 47.0912108163906
 4880000000 -0.404199330919716 46.8283476053979
 4890000000 -0.404191543820492 46.5654200843986
 4900000000 -0.404151545177532 46.3024234572337
 4910000000 -0.404079508104643 46.0393529414835
 4920000000 -0.40397562495154 45.7762037723217
 4930000000 -0.403840107292876 45.5129712063891
 4940000000 -0.403673185896503 45.249650525681
 4950000000 -0.403475110670921 44.9862370414433
 4960000000 -0.403246150591585 44.7227260980705
 4970000000 -0.402986593606189 44.4591130770022
 4980000000 -0.402696746518634 44.1953934006097
 4990000000 -0.402376934851759 43.9315625360691
 5000000000 -0.402027502688935 43.6676159992136
 5010000000 -0.401648812494356 43.4035493583603
 5020000000 -0.401241244912319 43.139358238105
 5030000000 -0.400805198545596 42.875038323079
 5040000000 -0.400341089712888 42.6105853616632
 5050000000 -0.399849352185933 42.3459951696523
 5060000000 -0.399330436906233 42.0812636338644
 5070000000 -0.398784811681732 41.8163867156902
 5080000000 -0.39821296086401 41.5513604545758
 5090000000 -0.397615385006166 41.2861809714347
 5100000000 -0.396992600501793 41.0208444719816
 5110000000 -0.396345139205752 40.7553472499858
 5120000000 -0.395673548036963 40.4896856904363
 5130000000 -0.394978388563937 40.2238562726151
 5140000000 -0.394260236573533 39.9578555730744
 5150000000 -0.39351968162355 39.6916802685111
 5160000000 -0.39275732657993 39.4253271385369
 5170000000 -0.391973787138931 39.1587930683377
 5180000000 -0.39116969133536 38.8920750512192
 5190000000 -0.390345679037311 38.6251701910353
 5200000000 -0.389502401428224 38.3580757044947
 5210000000 -0.388640520477112 38.0907889233434
 5220000000 -0.387760708397755 37.82330729642
 5230000000 -0.386863647097491 37.5556283915804
 5240000000 -0.385950027616753 37.2877498974895
 5250000000 -0.385020549559896 37.0196696252788
 5260000000 -0.384075920518456 36.7513855100664
 5270000000 -0.3831168554874 36.4828956123382
 5280000000 -0.38214407627563 36.2141981191896
 5290000000 -0.381158310911295 35.9452913454256
 5300000000 -0.380160293042998 35.6761737345187
 5310000000 -0.379150761337747 35.4068438594248
 5320000000 -0.378130458876546 35.1373004232551
 5330000000 -0.377100132548544 34.867542259806
 5340000000 -0.376060532444546 34.5975683339456
 5350000000 -0.375012411250933 34.3273777418583
 5360000000 -0.373956523644718 34.0569697111482
 5370000000 -0.372893625690659 33.7863436008013
 5380000000 -0.371824474241312 33.5154989010098
 5390000000 -0.370749826340813 33.2444352328577
 5400000000 -0.369670438633218 32.9731523478718
 5410000000 -0.368587066776294 32.7016501274387
 5420000000 -0.367500464861301 32.4299285820899
 5430000000 -0.366411384839902 32.1579878506591
 5440000000 -0.365320575958556 31.8858281993122
 5450000000 -0.364228784201346 31.6134500204553
 5460000000 -0.363136751741894 31.3408538315213
 5470000000 -0.362045216404957 31.0680402736409
 5480000000 -0.360954911138329 30.795010110199
 5490000000 -0.359866563495751 30.5217642252823
 5500000000 -0.358780895131352 30.2483036220202
 5510000000 -0.357698621306071 29.9746294208237
 5520000000 -0.35662045040673 29.7007428575266
 5530000000 -0.355547083478079 29.4266452814317
 5540000000 -0.354479213768425 29.1523381532685
 5550000000 -0.353417526289038 28.877823043064
 5560000000 -0.352362697387933 28.6031016279333
 5570000000 -0.351315394338232 28.3281756897935
 5580000000 -0.350276274941425 28.0530471130049
 5590000000 -0.349245987145886 27.777717881945
 5600000000 -0.3482251686808 27.5021900785189
 5610000000 -0.347214446705737 27.226465879612
 5620000000 -0.346214437476079 26.9505475544879
 5630000000 -0.345225746024419 26.6744374621374
 5640000000 -0.344248965858023 26.3981380485829
 5650000000 -0.343284678672456 26.1216518441415
 5660000000 -0.342333454081459 25.8449814606538
 5670000000 -0.341395849363015 25.5681295886808
 5680000000 -0.340472409221633 25.2910989946725
 5690000000 -0.339563665566873 25.0138925181167
 5700000000 -0.33867013730791 24.7365130686667
 5710000000 -0.337792330164197 24.4589636232571
 5720000000 -0.336930736491972 24.1812472232077
 5730000000 -0.336085835126539 23.9033669713231
 5740000000 -0.335258091240199 23.6253260289886
 5750000000 -0.334447956215545 23.3471276132691
 5760000000 -0.333655867533859 23.0687749940129
 5770000000 -0.332882248678735 22.7902714909641
 5780000000 -0.332127509054122 22.5116204708885
 5790000000 -0.33139204391697 22.2328253447138
 5800000000 -0.330676234324075 21.9538895646906
 5810000000 -0.329980447092678 21.6748166215742
 5820000000 -0.329305034774637 21.3956100418318
 5830000000 -0.328650335643967 21.1162733848783
 5840000000 -0.328016673697041 20.8368102403418
 5850000000 -0.327404358665438 20.5572242253625
 5860000000 -0.326813686041038 20.2775189819281
 5870000000 -0.326244937112727 19.9976981742458
 5880000000 -0.325698379014758 19.7177654861553
 5890000000 -0.325174264785948 19.4377246185832
 5900000000 -0.324672833439679 19.1575792870424
 5910000000 -0.32419431004409 18.877333219176
 5920000000 -0.32373890581214 18.5969901523494
 5930000000 -0.323306818201198 18.3165538312907
 5940000000 -0.322898231021591 18.036028005782
 5950000000 -0.322513314553947 17.7554164284012