! Touchstone file exported from HFSS 2022.2.0
!        File:           C:/Users/pete_/Documents/Type2_Expert_Test_Board/Layout/Current/Plane.aedt
!        Generated:      3:53:57 PM  Mar 16, 2023
!        Design:         HFSSDesign1
!        Project:        Plane
!        Setup:          Setup1
!        Solution:       Sweep1
!
# GHz S MA R 1.000000
! Terminal data exported
! Port[1] = Power_T1
! Port[2] = Power_T2
1E-09                          0.0104911903849777 2.59201785542988E-05 0.9894014962787  -2.78784272443744E-07 0.989401496425066 -2.78784274108632E-07 0.0107087504405482 2.5171578522901E-05 
! Gamma         0.0326995944954671 5.5079879781204E-08 0.0326918884206766 5.5097364685531E-08 
! Port Impedance         1                0                1                0                
1.02329299228075E-09           0.0104911903849751 2.65239370732942E-05 0.989401496278703 -2.85277992349835E-07 0.989401496425063 -2.85277994053472E-07 0.0107087504405432 2.57578999071498E-05 
! Gamma         0.0326995944954671 5.63628549957722E-08 0.0326918884206766 5.63807471758408E-08 
! Port Impedance         1                0                1                0                
1.0471285480509E-09            0.0104911903849725 2.71417589348108E-05 0.989401496278697 -2.91922970423453E-07 0.989401496425061 -2.9192297216671E-07 0.0107087504405402 2.63578784708745E-05 
! Gamma         0.0326995944954671 5.76757145421103E-08 0.0326918884206766 5.7694023484591E-08 
! Port Impedance         1                0                1                0                
1.07151930523761E-09           0.0104911903849784 2.77739717161367E-05 0.9894014962787  -2.98722729920211E-07 0.989401496425069 -2.98722731704183E-07 0.0107087504405516 2.69718323305687E-05 
! Gamma         0.0326995944954671 5.90191545157268E-08 0.0326918884206766 5.90378899282634E-08 
! Port Impedance         1                0                1                0                
1.09647819614319E-09           0.010491190384972 2.84209106249748E-05 0.9894014962787  -3.05680876162031E-07 0.989401496425067 -3.05680877987669E-07 0.0107087504405464 2.76000870128811E-05 
! Gamma         0.0326995944954671 6.03938872262783E-08 0.0326918884206766 6.04130590426345E-08 
! Port Impedance         1                0                1                0                
1.12201845430196E-09           0.010491190384968 2.90829186767741E-05 0.989401496278698 -3.12801098450988E-07 0.989401496425062 -3.12801100319134E-07 0.0107087504405395 2.82429756266392E-05 
! Gamma         0.0326995944954671 6.18006415752443E-08 0.0326918884206766 6.18202599605709E-08 
! Port Impedance         1                0                1                0                
1.14815362149688E-09           0.0104911903849691 2.97603468769944E-05 0.989401496278696 -3.20087172022794E-07 0.989401496425059 -3.20087173934251E-07 0.0107087504405396 2.89008390398909E-05 
! Gamma         0.0326995944954671 6.32401634424022E-08 0.0326918884206766 6.32602387986267E-08 
! Port Impedance         1                0                1                0                
1.17489755493953E-09           0.0104911903849729 3.04535544070625E-05 0.989401496278698 -3.27542960049764E-07 0.989401496425066 -3.27542962005884E-07 0.0107087504405449 2.95740260605335E-05 
! Gamma         0.0326995944954671 6.47132160812998E-08 0.0326918884206766 6.4733759052642E-08 
! Port Impedance         1                0                1                0                
1.20226443461741E-09           0.0104911903849718 3.11629088148071E-05 0.989401496278695 -3.35172415689654E-07 0.989401496425056 -3.35172417691164E-07 0.0107087504405405 3.02628936213073E-05 
! Gamma         0.0326995944954671 6.62205805239441E-08 0.0326918884206766 6.62416020025592E-08 
! Port Impedance         1                0                1                0                
1.23026877081238E-09           0.0104911903849697 3.18887862092707E-05 0.989401496278696 -3.42979584181214E-07 0.98940149642506 -3.42979586229454E-07 0.0107087504405414 3.09678069688034E-05 
! Gamma         0.0326995944954671 6.77630559949155E-08 0.0326918884206766 6.77845671266697E-08 
! Port Impedance         1                0                1                0                
1.25892541179417E-09           0.0104911903849613 3.26315714603221E-05 0.989401496278687 -3.50968604988018E-07 0.989401496425052 -3.50968607083935E-07 0.0107087504405307 3.16891398575231E-05 
! Gamma         0.0326995944954671 6.93414603351256E-08 0.0326918884206766 6.93634725255057E-08 
! Port Impedance         1                0                1                0                
1.28824955169313E-09           0.0104911903849687 3.33916584024291E-05 0.989401496278692 -3.59143713994585E-07 0.989401496425052 -3.59143716139237E-07 0.0107087504405373 3.24272747475932E-05 
! Gamma         0.0326995944954671 7.09566304354476E-08 0.0326918884206766 7.09791553556082E-08 
! Port Impedance         1                0                1                0                
1.31825673855641E-09           0.0104911903849731 3.41694500438337E-05 0.989401496278698 -3.67509245752349E-07 0.989401496425066 -3.67509247947056E-07 0.0107087504405454 3.3182603007953E-05 
! Gamma         0.0326995944954671 7.26094226804491E-08 0.0326918884206766 7.26324722734012E-08 
! Port Impedance         1                0                1                0                
1.34896288259165E-09           0.0104911903849622 3.49653587799892E-05 0.98940149627869 -3.76069635776539E-07 0.989401496425054 -3.76069638022435E-07 0.010708750440534 3.3955525123717E-05 
! Gamma         0.0326995944954671 7.43007134024545E-08 0.0326918884206766 7.43242998893973E-08 
! Port Impedance         1                0                1                0                
1.38038426460288E-09           0.0104911903849711 3.57798066120745E-05 0.989401496278697 -3.84829422900167E-07 0.989401496425054 -3.84829425198009E-07 0.010708750440536 3.47464509082953E-05 
! Gamma         0.0326995944954671 7.60313993461923E-08 0.0326918884206766 7.60555352329934E-08 
! Port Impedance         1                0                1                0                
1.41253754462275E-09           0.0104911903849741 3.66132253713315E-05 0.989401496278696 -3.93793251676848E-07 0.989401496425059 -3.93793254028553E-07 0.0107087504405444 3.5555799721066E-05 
! Gamma         0.0326995944954671 7.78023981442582E-08 0.0326918884206766 7.78270962280842E-08 
! Port Impedance         1                0                1                0                
1.44543977074593E-09           0.0104911903849775 3.74660569472458E-05 0.989401496278696 -4.02965874848477E-07 0.989401496425061 -4.0296587725481E-07 0.0107087504405496 3.63840006894632E-05 
! Gamma         0.0326995944954671 7.96146488036569E-08 0.0326918884206766 7.96399221797588E-08 
! Port Impedance         1                0                1                0                
1.47910838816821E-09           0.0104911903849768 3.83387535224881E-05 0.989401496278702 -4.12352155860835E-07 0.989401496425063 -4.12352158323166E-07 0.010708750440545 3.72314929366821E-05 
! Gamma         0.0326995944954671 8.14691122036754E-08 0.0326918884206766 8.14949742723318E-08 
! Port Impedance         1                0                1                0                
1.51356124843621E-09           0.0104911903849711 3.92317778123904E-05 0.989401496278694 -4.21957071443884E-07 0.989401496425054 -4.2195707396354E-07 0.0107087504405387 3.809872581431E-05 
! Gamma         0.0326995944954671 8.33667716053555E-08 0.0326918884206766 8.33932360789775E-08 
! Port Impedance         1                0                1                0                
1.54881661891248E-09           0.0104911903849691 4.01456033101276E-05 0.989401496278696 -4.31785714252149E-07 0.989401496425057 -4.31785716830481E-07 0.0107087504405371 3.89861591406037E-05 
! Gamma         0.0326995944954671 8.53086331728302E-08 0.0326918884206766 8.5335714083232E-08 
! Port Impedance         1                0                1                0                
1.58489319246111E-09           0.0104911903849712 4.10807145381042E-05 0.989401496278696 -4.41843295561523E-07 0.989401496425063 -4.41843298200218E-07 0.0107087504405429 3.98942634444387E-05 
! Gamma         0.0326995944954671 8.72957265068066E-08 0.0326918884206766 8.73234382126453E-08 
! Port Impedance         1                0                1                0                
1.62181009735893E-09           0.0104911903849708 4.20376073047644E-05 0.989401496278691 -4.52135148033841E-07 0.989401496425057 -4.52135150734184E-07 0.0107087504405443 4.08235202149091E-05 
! Gamma         0.0326995944954671 8.93291051904726E-08 0.0326918884206766 8.93574623848615E-08 
! Port Impedance         1                0                1                0                
1.65958690743756E-09           0.0104911903849763 4.30167889672162E-05 0.989401496278698 -4.62666728546454E-07 0.989401496425064 -4.62666731309443E-07 0.010708750440546 4.17744221562124E-05 
! Gamma         0.0326995944954671 9.14098473481209E-08 0.0326918884206766 9.14388650664198E-08 
! Port Impedance         1                0                1                0                
1.69824365246174E-09           0.0104911903849669 4.40187787005703E-05 0.98940149627869 -4.73443621083556E-07 0.989401496425059 -4.73443623910789E-07 0.01070875044054 4.27474734490122E-05 
! Gamma         0.0326995944954671 9.35390562167854E-08 0.0326918884206766 9.35687498445727E-08 
! Port Impedance         1                0                1                0                
1.73780082874938E-09           0.0104911903849708 4.50441077730336E-05 0.989401496278693 -4.84471539694871E-07 0.989401496425059 -4.84471542587962E-07 0.0107087504405406 4.37431900180833E-05 
! Gamma         0.0326995944954671 9.57178607311925E-08 0.0326918884206766 9.57482460124226E-08 
! Port Impedance         1                0                1                0                
1.77827941003892E-09           0.010491190384978 4.60933198276324E-05 0.989401496278699 -4.95756331529292E-07 0.989401496425061 -4.95756334489608E-07 0.0107087504405434 4.47620998054926E-05 
! Gamma         0.0326995944954671 9.79474161223341E-08 0.0326918884206766 9.79785091676853E-08 
! Port Impedance         1                0                1                0                
1.81970085860998E-09           0.0104911903849844 4.71669711705864E-05 0.989401496278702 -5.07303979932294E-07 0.98940149642507 -5.07303982962299E-07 0.0107087504405556 4.58047430506459E-05 
! Gamma         0.0326995944954671 1.00228904529991E-07 0.0326918884206766 1.00260721825408E-07 
! Port Impedance         1                0                1                0                
1.86208713666287E-09           0.0104911903849798 4.82656310660359E-05 0.989401496278706 -5.19120607620583E-07 0.989401496425076 -5.19120610721123E-07 0.0107087504405538 4.68716725770075E-05 
! Gamma         0.0326995944954671 1.02563535629517E-07 0.0326918884206766 1.0259609404495E-07 
! Port Impedance         1                0                1                0                
1.90546071796325E-09           0.0104911903849791 4.93898820378019E-05 0.989401496278699 -5.3121247992728E-07 0.989401496425066 -5.31212483099596E-07 0.0107087504405498 4.7963454084494E-05 
! Gamma         0.0326995944954671 1.04952547273222E-07 0.0326918884206766 1.04985864071575E-07 
! Port Impedance         1                0                1                0                
1.94984459975805E-09           0.0104911903849759 5.05403201788589E-05 0.989401496278699 -5.43586008121864E-07 0.98940149642506 -5.4358601136785E-07 0.0107087504405445 4.90806664502851E-05 
! Gamma         0.0326995944954671 1.07397206146703E-07 0.0326918884206766 1.07431298992983E-07 
! Port Impedance         1                0                1                0                
1.99526231496888E-09           0.0104911903849796 5.17175554666174E-05 0.989401496278702 -5.56247752813166E-07 0.989401496425066 -5.56247756134711E-07 0.0107087504405471 5.02239020350026E-05 
! Gamma         0.0326995944954671 1.09898808440453E-07 0.0326918884206766 1.09933695411137E-07 
! Port Impedance         1                0                1                0                
2.04173794466953E-09           0.0104911903849772 5.29222120869364E-05 0.989401496278694 -5.69204427425118E-07 0.989401496425068 -5.69204430824647E-07 0.0107087504405537 5.13937669973895E-05 
! Gamma         0.0326995944954671 1.1245868053712E-07 0.0326918884206766 1.12494380129744E-07 
! Port Impedance         1                0                1                0                
2.08929613085404E-09           0.0104911903849741 5.41549287645556E-05 0.989401496278691 -5.82462901759276E-07 0.989401496425053 -5.82462905237574E-07 0.0107087504405429 5.25908816154231E-05 
! Gamma         0.0326995944954671 1.15078179714775E-07 0.0326918884206766 1.15114710857734E-07 
! Port Impedance         1                0                1                0                
2.13796208950223E-09           0.0104911903849814 5.54163591022384E-05 0.989401496278692 -5.96030205633494E-07 0.989401496425058 -5.96030209192916E-07 0.0107087504405527 5.38158806148925E-05 
! Gamma         0.0326995944954671 1.17758694866555E-07 0.0326918884206766 1.17796076929144E-07 
! Port Impedance         1                0                1                0                
2.18776162394955E-09           0.0104911903849802 5.67071719270026E-05 0.989401496278698 -6.09913532612655E-07 0.98940149642506 -6.09913536254896E-07 0.0107087504405481 5.50694135066416E-05 
! Gamma         0.0326995944954671 1.20501647237073E-07 0.0326918884206766 1.20539900039758E-07 
! Port Impedance         1                0                1                0                
2.23872113856834E-09           0.0104911903849819 5.80280516449489E-05 0.989401496278696 -6.24120243819662E-07 0.989401496425064 -6.24120247547097E-07 0.0107087504405555 5.63521449302704E-05 
! Gamma         0.0326995944954671 1.23308491175984E-07 0.0326918884206766 1.23347635000907E-07 
! Port Impedance         1                0                1                0                
2.29086765276777E-09           0.0104911903849872 5.93796986039527E-05 0.9894014962787  -6.38657871841042E-07 0.989401496425064 -6.3865787565486E-07 0.0107087504405574 5.76647550071715E-05 
! Gamma         0.0326995944954671 1.26180714909098E-07 0.0326918884206766 1.26220770510832E-07 
! Port Impedance         1                0                1                0                
2.34422881531992E-09           0.0104911903849846 6.07628294651548E-05 0.989401496278699 -6.53534124720338E-07 0.989401496425062 -6.53534128623449E-07 0.0107087504405535 5.90079397003771E-05 
! Gamma         0.0326995944954671 1.29119841327455E-07 0.0326918884206766 1.29160829944012E-07 
! Port Impedance         1                0                1                0                
2.39883291901949E-09           0.0104911903849806 6.21781775828773E-05 0.989401496278696 -6.68756890042327E-07 0.98940149642506 -6.68756894036218E-07 0.0107087504405511 6.03824111843611E-05 
! Gamma         0.0326995944954671 1.32127428794788E-07 0.0326918884206766 1.32169372158874E-07 
! Port Impedance         1                0                1                0                
2.45470891568503E-09           0.0104911903849814 6.36264933933661E-05 0.989401496278695 -6.84334239119775E-07 0.98940149642506 -6.84334243206397E-07 0.0107087504405486 6.1788898222034E-05 
! Gamma         0.0326995944954671 1.35205071973781E-07 0.0326918884206766 1.35247992324323E-07 
! Port Impedance         1                0                1                0                
2.51188643150958E-09           0.0104911903849845 6.51085448127641E-05 0.989401496278696 -7.00274431269378E-07 0.989401496425063 -7.00274435451688E-07 0.0107087504405532 6.32281465512298E-05 
! Gamma         0.0326995944954671 1.38354402671585E-07 0.0326918884206766 1.3839832276552E-07 
! Port Impedance         1                0                1                0                
2.57039578276886E-09           0.0104911903849814 6.66251176445332E-05 0.989401496278697 -7.16585918191191E-07 0.989401496425062 -7.16585922470449E-07 0.0107087504405531 6.47009192808528E-05 
! Gamma         0.0326995944954671 1.41577090705023E-07 0.0326918884206766 1.41622033829367E-07 
! Port Impedance         1                0                1                0                
2.63026799189538E-09           0.0104911903849875 6.8177015995486E-05 0.989401496278698 -7.33277348451859E-07 0.989401496425064 -7.33277352830778E-07 0.0107087504405558 6.6207997294181E-05 
! Gamma         0.0326995944954671 1.44874844785946E-07 0.0326918884206766 1.44920834770139E-07 
! Port Impedance         1                0                1                0                
2.69153480392692E-09           0.0104911903849783 6.97650627028952E-05 0.989401496278692 -7.50357572068983E-07 0.989401496425061 -7.50357576550599E-07 0.0107087504405501 6.77501796640842E-05 
! Gamma         0.0326995944954671 1.48249413427221E-07 0.0326918884206766 1.48296474655761E-07 
! Port Impedance         1                0                1                0                
2.75422870333817E-09           0.0104911903849922 7.13900997697649E-05 0.989401496278703 -7.67835645202695E-07 0.989401496425067 -7.67835649788368E-07 0.0107087504405622 6.93282840759661E-05 
! Gamma         0.0326995944954671 1.51702585869808E-07 0.0326918884206766 1.5175074329518E-07 
! Port Impedance         1                0                1                0                
2.81838293126445E-09           0.010491190384978 7.30529888127446E-05 0.989401496278687 -7.857208349593E-07 0.989401496425051 -7.85720839651674E-07 0.0107087504405451 7.09431472619074E-05 
! Gamma         0.0326995944954671 1.55236193031443E-07 0.0326918884206766 1.55285472187353E-07 
! Port Impedance         1                0                1                0                
2.88403150312661E-09           0.0104911903849797 7.47546115172735E-05 0.98940149627869 -8.04022624302176E-07 0.989401496425061 -8.04022629103895E-07 0.0107087504405531 7.25956254434094E-05 
! Gamma         0.0326995944954671 1.58852108477419E-07 0.0326918884206766 1.58902535492327E-07 
! Port Impedance         1                0                1                0                
2.95120922666639E-09           0.0104911903849835 7.64958701062211E-05 0.989401496278698 -8.22750717083951E-07 0.989401496425063 -8.22750721997825E-07 0.010708750440558 7.42865947864239E-05 
! Gamma         0.0326995944954671 1.62552249413965E-07 0.0326918884206766 1.62603851024942E-07 
! Port Impedance         1                0                1                0                
3.01995172040202E-09           0.0104911903849809 7.82776878181829E-05 0.989401496278694 -8.41915043185699E-07 0.98940149642506 -8.41915048213682E-07 0.0107087504405533 7.60169518654248E-05 
! Gamma         0.0326995944954671 1.66338577704784E-07 0.0326918884206766 1.66391381271687E-07 
! Port Impedance         1                0                1                0                
3.09029543251359E-09           0.0104911903849939 8.01010093960837E-05 0.9894014962787  -8.61525763788363E-07 0.98940149642506 -8.61525768933068E-07 0.0107087504405579 7.7787614138333E-05 
! Gamma         0.0326995944954671 1.70213100911252E-07 0.0326918884206766 1.70267134431232E-07 
! Port Impedance         1                0                1                0                
3.16227766016838E-09           0.0104911903849827 8.19668015898155E-05 0.989401496278689 -8.81593276752941E-07 0.989401496425051 -8.81593282017413E-07 0.0107087504405536 7.95995204341225E-05 
! Gamma         0.0326995944954671 1.74177873356861E-07 0.0326918884206766 1.74233165479205E-07 
! Port Impedance         1                0                1                0                
3.23593656929628E-09           0.0104911903849921 8.38760536663784E-05 0.989401496278696 -9.02128222143936E-07 0.989401496425062 -9.02128227530957E-07 0.0107087504405595 8.14536314490568E-05 
! Gamma         0.0326995944954671 1.78234997216441E-07 0.0326918884206766 1.78291577257763E-07 
! Port Impedance         1                0                1                0                
3.31131121482591E-09           0.0104911903849902 8.58297779369614E-05 0.989401496278696 -9.23141487858331E-07 0.989401496425057 -9.2314149337091E-07 0.0107087504405529 8.33509302576558E-05 
! Gamma         0.0326995944954671 1.82386623630764E-07 0.0326918884206766 1.82444521590552E-07 
! Port Impedance         1                0                1                0                
3.38844156139203E-09           0.0104911903849957 8.78290102918272E-05 0.9894014962787  -9.44644215409327E-07 0.989401496425063 -9.44644221050382E-07 0.0107087504405605 8.52924228326366E-05 
! Gamma         0.0326995944954671 1.86634953847108E-07 0.0326918884206766 1.86694200423627E-07 
! Port Impedance         1                0                1                0                
3.46736850452532E-09           0.0104911903849951 8.98748107506706E-05 0.989401496278699 -9.66647805826261E-07 0.989401496425066 -9.66647811598888E-07 0.0107087504405668 8.72791385792837E-05 
! Gamma         0.0326995944954671 1.90982240386388E-07 0.0326918884206766 1.91042866992956E-07 
! Port Impedance         1                0                1                0                
3.54813389233576E-09           0.010491190384989 9.19682640236731E-05 0.989401496278693 -9.89163925706093E-07 0.989401496425059 -9.8916393161366E-07 0.0107087504405597 8.93121308804388E-05 
! Gamma         0.0326995944954671 1.95430788237469E-07 0.0326918884206766 1.95492827019116E-07 
! Port Impedance         1                0                1                0                
3.63078054770101E-09           0.0104911903849993 9.41104800875946E-05 0.9894014962787  -1.0122045133914E-06 0.989401496425063 -1.01220451943627E-06 0.0107087504405641 9.13924776556328E-05 
! Gamma         0.0326995944954671 1.99982956079306E-07 0.0326918884206766 2.00046439929815E-07 
! Port Impedance         1                0                1                0                
3.71535229097173E-09           0.0104911903849899 9.63025947739191E-05 0.989401496278693 -1.03578178530797E-06 0.989401496425063 -1.03578179149376E-06 0.0107087504405583 9.35212819322471E-05 
! Gamma         0.0326995944954671 2.04641157531544E-07 0.0326918884206766 2.04706120110893E-07 
! Port Impedance         1                0                1                0                
3.80189396320561E-09           0.0104911903849994 9.85457703704271E-05 0.989401496278699 -1.0599082424382E-06 0.989401496425066 -1.05990824876858E-06 0.0107087504405661 9.56996724301699E-05 
! Gamma         0.0326995944954671 2.0940786243425E-07 0.0326918884206766 2.09474338186458E-07 
! Port Impedance         1                0                1                0                
3.89045144994281E-09           0.0104911903849882 0.000100841196239094 0.989401496278686 -1.08459667694752E-06 0.989401496425051 -1.08459668342457E-06 0.0107087504405546 9.79288041615464E-05 
! Gamma         0.0326995944954671 2.14285598157461E-07 0.0326918884206766 2.14353622328852E-07 
! Port Impedance         1                0                1                0                
3.98107170553497E-09           0.0104911903849841 0.000103190089444853 0.989401496278687 -1.10986017896972E-06 0.989401496425058 -1.1098601855983E-06 0.0107087504405548 0.000100209859041033 
! Gamma         0.0326995944954671 2.19276950941219E-07 0.0326918884206766 2.19346559599109E-07 
! Port Impedance         1                0                1                0                
4.07380277804113E-09           0.0104911903849968 0.000105593695401544 0.989401496278693 -1.13571214355135E-06 0.989401496425058 -1.13571215033327E-06 0.0107087504405634 0.00010254404651408 
! Gamma         0.0326995944954671 2.2438456726684E-07 0.0326918884206766 2.24455797318661E-07 
! Port Impedance         1                0                1                0                
4.16869383470335E-09           0.0104911903850028 0.000108053288533176 0.989401496278696 -1.16216627774562E-06 0.98940149642506 -1.16216628468631E-06 0.0107087504405664 0.000104932604197673 
! Gamma         0.0326995944954671 2.29611155260107E-07 0.0326918884206766 2.29684044472975E-07 
! Port Impedance         1                0                1                0                
4.26579518801593E-09           0.0104911903850021 0.00011057017294892 0.989401496278696 -1.18923660788162E-06 0.989401496425065 -1.18923661498421E-06 0.0107087504405724 0.000107376798537212 
! Gamma         0.0326995944954671 2.34959486127156E-07 0.0326918884206766 2.35034073147897E-07 
! Port Impedance         1                0                1                0                
4.36515832240166E-09           0.0104911903850015 0.00011314568313396 0.989401496278691 -1.2169374870087E-06 0.989401496425054 -1.21693749427519E-06 0.0107087504405627 0.000109877925476919 
! Gamma         0.0326995944954671 2.40432395623806E-07 0.0326918884206766 2.40508719999445E-07 
! Port Impedance         1                0                1                0                
4.46683592150963E-09           0.0104911903849981 0.000115781184657837 0.989401496278693 -1.24528360249898E-06 0.989401496425054 -1.24528360993571E-06 0.0107087504405611 0.000112437311146821 
! Gamma         0.0326995944954671 2.46032785559114E-07 0.0326918884206766 2.46110887757846E-07 
! Port Impedance         1                0                1                0                
4.57088189614875E-09           0.0104911903850078 0.000118478074898227 0.989401496278694 -1.27428998383867E-06 0.989401496425062 -1.27428999144882E-06 0.0107087504405772 0.000115056312567268 
! Gamma         0.0326995944954671 2.51763625333955E-07 0.0326918884206766 2.51843546766599E-07 
! Port Impedance         1                0                1                0                
4.67735141287198E-09           0.0104911903850009 0.000121237783782322 0.989401496278679 -1.30397201059572E-06 0.989401496425043 -1.30397201838249E-06 0.010708750440565 0.000117736318367908 
! Gamma         0.0326995944954671 2.57627953515433E-07 0.0326918884206766 2.57709736557391E-07 
! Port Impedance         1                0                1                0                
4.78630092322638E-09           0.0104911903850075 0.000124061774543888 0.989401496278688 -1.33434542057351E-06 0.989401496425048 -1.33434542854192E-06 0.0107087504405718 0.000120478749522575 
! Gamma         0.0326995944954671 2.63628879447975E-07 0.0326918884206766 2.63712567461698E-07 
! Port Impedance         1                0                1                0                
4.89778819368446E-09           0.0104911903850086 0.000126951544500636 0.989401496278693 -1.36542631815468E-06 0.989401496425056 -1.36542632630913E-06 0.0107087504405762 0.000123285060105103 
! Gamma         0.0326995944954671 2.6976958490194E-07 0.0326918884206766 2.69855222259921E-07 
! Port Impedance         1                0                1                0                
5.01187233627272E-09           0.0104911903850096 0.000129908625846764 0.989401496278692 -1.39723118284262E-06 0.98940149642506 -1.39723119118675E-06 0.0107087504405748 0.000126156738058531 
! Gamma         0.0326995944954671 2.76053325760644E-07 0.0326918884206766 2.76140957868942E-07 
! Port Impedance         1                0                1                0                
5.12861383991365E-09           0.010491190385016 0.000132934586465635 0.989401496278686 -1.4297768779992E-06 0.989401496425051 -1.42977688653823E-06 0.0107087504405802 0.000129095305984159 
! Gamma         0.0326995944954671 2.82483433746663E-07 0.0326918884206766 2.82573107068984E-07 
! Port Impedance         1                0                1                0                
5.24807460249773E-09           0.0104911903850079 0.000136031030762106 0.989401496278679 -1.46308065978172E-06 0.989401496425046 -1.46308066851942E-06 0.010708750440574 0.000132102321949944 
! Gamma         0.0326995944954671 2.89063318188365E-07 0.0326918884206766 2.89155080270691E-07 
! Port Impedance         1                0                1                0                
5.37031796370253E-09           0.0104911903850091 0.000139199600511658 0.989401496278675 -1.4971601862943E-06 0.989401496425036 -1.49716019523482E-06 0.0107087504405684 0.000135179380315597 
! Gamma         0.0326995944954671 2.95796467827576E-07 0.0326918884206766 2.95890367323376E-07 
! Port Impedance         1                0                1                0                
5.49540873857625E-09           0.0104911903850285 0.000142441975731561 0.989401496278691 -1.53203352695615E-06 0.989401496425056 -1.53203353610492E-06 0.0107087504405915 0.000138328112577498 
! Gamma         0.0326995944954671 3.02686452669358E-07 0.0326918884206766 3.0278253936539E-07 
! Port Impedance         1                0                1                0                
5.62341325190349E-09           0.0104911903850287 0.00014575987557274 0.98940149627869 -1.5677191720732E-06 0.989401496425051 -1.56771918143525E-06 0.0107087504405875 0.000141550188236013 
! Gamma         0.0326995944954671 3.09736925874874E-07 0.0326918884206766 3.09835250717574E-07 
! Port Impedance         1                0                1                0                
5.75439937337157E-09           0.0104911903850325 0.000149155059229091 0.989401496278685 -1.60423604264659E-06 0.989401496425049 -1.60423605222629E-06 0.0107087504405936 0.000144847315677754 
! Gamma         0.0326995944954671 3.16951625698342E-07 0.0326918884206766 3.17052240820844E-07 
! Port Impedance         1                0                1                0                