# Hz S DB R 50
!Touchstone multiport model file <C:\work\PySI\TestSignalIntegrity\OysterSimulation\ResampledSimbeor\Cable1_resampled.s2p>
!Created on 22 Aug 18, at 17:55:26.
!Created with Simbeor THz 2018.01(64bit) of Simberian Inc. built on Jul 20 2018

!Output from MultiportParameters of Simbeor.
!Multiport parameters: DataOrigin=Simulation DataOriginName="Project(1).Cable1_resampled_resampled.LNS"
!RESAMPLED_RCM: Max_RMS_Error=0.00174298; FrqLow=0; FrqHigh=4e+10; MaxTimeResolution=1.25e-11; PassivityState=1; ReciprocityState=1;
!RATIONAL COMPACTOR: Precision: Normal; Extract Delay: ON; Extrapolate to DC: ON; Extrapolate to Infinity: OFF; Enforce Passivity: ON; Enforce Reciprocity: ON; Band Limit Factor: 1; Auto-Adjust Config: OFF

!Uncomment the following lines with keywords in square brakets to support IBIS forum specification 2.0.
![Version] 2.0 !This line should be the first in file, preceeding the line starting with #.
![Number of Ports] 2
![Number of Frequencies] 8001
![Two-Port Data Order] 21_12
![Reference] 50 50

!!!!Multiport descriptor profile: InputCount=2 TotalPortCount=2
!DescriptorOutline={DescriptorType=SMatrix InputSpace=Terminal NormalizationType=CommonZo NormalizationCommonZo=50 Ohm OutputFormat=DBMagnitudeAngle}
!InputProfile={Name="IO1" IsTLineInput=False InputNumber=1 PortCount=1 FirstPortNumber=1 InputSpace=Terminal BlockType=SBlock NormalizationType=CommonZo Zo=50}
!InputProfile={Name="IO2" IsTLineInput=False InputNumber=2 PortCount=1 FirstPortNumber=2 InputSpace=Terminal BlockType=SBlock NormalizationType=CommonZo Zo=50}

!!!Global port number to input_name/local_port_number correspondence:
!Port 1 -> "IO1"/local_port_1 (terminal)
!Port 2 -> "IO2"/local_port_1 (terminal)
!!!!End of descriptor profile.

!Frequency Hz 20.0*log(|S[1,1]|) arg(S[1,1]) 20.0*log(|S[2,1]|) arg(S[2,1]) 20.0*log(|S[1,2]|) arg(S[1,2]) 20.0*log(|S[2,2]|) arg(S[2,2])
 0 -44.9813074829132 0 -0.0468354243601823 0 -0.0468354243603685 0 -46.9217932586494 0
 10000000 -43.6406428110865 22.3986903035266 -0.0469993558962197 -8.12770176620938 -0.0469993558962216 -8.12770176620933 -44.9218235487061 28.2643455730021
 20000000 -41.1817241768161 32.5980472040959 -0.0474879890944937 -16.2551335930191 -0.0474879890944937 -16.255133593019 -41.7877248422664 38.1494108955229
 30000000 -38.9882070897699 34.2752658350879 -0.0482918735448387 -24.3820315246983 -0.0482918735448426 -24.3820315246983 -39.2799872735229 38.2971231576796
 40000000 -37.2805800837508 31.8103917427865 -0.049395378688008 -32.5081437246354 -0.049395378688009 -32.5081437246354 -37.4225341084338 34.4500462103179
 50000000 -35.9972914192922 27.3633171172935 -0.0507768998360119 -40.6332368851789 -0.0507768998360109 -40.6332368851789 -36.0572084367435 28.8362066431832
 60000000 -35.0534188983318 21.9784449028003 -0.052409197765968 -48.7571029710445 -0.0524091977659699 -48.7571029710445 -35.0621626686789 22.4114465873355
 70000000 -34.3774402736138 16.201947392633 -0.0542599207607337 -56.8795662495306 -0.0542599207607337 -56.8795662495306 -34.3524489787727 15.6412980690148
 80000000 -33.9115007559528 10.3268064555783 -0.0562923658944085 -65.0004904051029 -0.0562923658944075 -65.0004904051029 -33.8666806726275 8.76500947685522
 90000000 -33.6089442706148 4.49066364776694 -0.0584665354134227 -73.1197853310314 -0.0584665354134227 -73.1197853310314 -33.5586217780156 1.8927723151937
 100000000 -33.4338610375675 -1.278980287792 -0.0607405287410712 -81.2374129537714 -0.0607405287410741 -81.2374129537714 -33.3933392000594 -4.95506033668058
 110000000 -33.3622712368223 -7.03463141832482 -0.0630722757070027 -89.3533912190227 -0.0630722757070027 -89.3533912190227 -33.3462888567805 -11.8284189471925
 120000000 -33.3837307922409 -12.8799170119704 -0.0654215597120618 -97.4677952230054 -0.0654215597120627 -97.4677952230054 -33.4039633552631 -18.8323740028476
 130000000 -33.5023777671925 -18.9398598400746 -0.067752204640419 -105.580754499946 -0.067752204640419 -105.580754499946 -33.5649665308889 -26.1114355904954
 140000000 -33.7371593215714 -25.3338541254987 -0.070034219577286 -113.692445762542 -0.0700342195772831 -113.692445762542 -33.8407340288384 -33.8349264096496
 150000000 -34.1218844220766 -32.1557627925393 -0.0722456332520783 -121.803080972638 -0.0722456332520783 -121.803080972638 -34.2557139131875 -42.1895896215723
 160000000 -34.7066164108517 -39.4632148306225 -0.0743737324884476 -129.912891436241 -0.0743737324884476 -129.912891436241 -34.8474968132457 -51.3885018043294
 170000000 -35.5629938395354 -47.2750182167089 -0.0764154669431772 -138.022109497129 -0.0764154669431753 -138.022109497129 -35.6677932966757 -61.7095753633786
 180000000 -36.7986758053958 -55.5732487095538 -0.0783768993789179 -146.130950089866 -0.0783768993789179 -146.130950089866 -36.7847521432879 -73.5906429440303
 190000000 -38.5948782728443 -64.3042026627787 -0.0802717448217142 -154.239594655146 -0.0802717448217113 -154.239594655146 -38.2836358309431 -87.8506888957728
 200000000 -41.3169701785458 -73.3625911115068 -0.0821192099207216 -162.348179585616 -0.0821192099207206 -162.348179585615 -40.2429344070122 -106.216843264282
 210000000 -45.96148087209 -82.4615833288682 -0.0839414663873543 -170.456790521049 -0.0839414663873553 -170.456790521049 -42.5548777869415 -132.37918753252
 220000000 -58.5494412506218 -88.2067612436681 -0.0857611346294683 -178.565462692742 -0.0857611346294595 -178.565462692741 -44.1778418140352 -170.932166140081
 230000000 -50.8942080985132 73.8386965726948 -0.0875991092230433 173.325813544464 -0.0875991092230443 173.325813544464 -43.2551597980703 146.295187472188
 240000000 -43.2173233737093 64.761496947901 -0.0894729491814625 165.217083582832 -0.0894729491814634 165.217083582832 -40.7613007381894 114.511718182124
 250000000 -39.3073419345283 54.52973480583 -0.0913959220288492 157.10841769375 -0.0913959220288482 157.10841769375 -38.3734489626352 92.3334023482302
 260000000 -36.7860289803536 43.9863521307207 -0.0933766696553115 148.999900124401 -0.0933766696553115 148.999900124401 -36.4764670212581 75.0636236269854
 270000000 -35.0369895710888 33.288455342959 -0.0954193804970509 140.891619430137 -0.0954193804970509 140.891619430137 -35.0429267777023 60.2838367803206
 280000000 -33.8076704520889 22.5057335549878 -0.0975243139374734 132.783660782074 -0.0975243139374773 132.783660782074 -33.9997850939453 46.8913046713078
 290000000 -32.9706964077621 11.6827418058995 -0.0996885223644632 124.676100501934 -0.0996885223644642 124.676100501934 -33.2890673189873 34.3568850713146
 300000000 -32.4537494370027 0.85095584610873 -0.101906640650209 116.56900271361 -0.101906640650213 116.56900271361 -32.8714688490451 22.4108013258622
 310000000 -32.2128827715144 -9.96991714030637 -0.104171648120521 108.462417784038 -0.104171648120521 108.462417784038 -32.7226355307803 10.9097483859701
 320000000 -32.220768811949 -20.77447335662 -0.106475543829225 100.356382136062 -0.106475543829227 100.356382136062 -32.8301746243907 -0.223649177441712
 330000000 -32.4611342486072 -31.5768326440432 -0.108809906022539 92.2509190163717 -0.108809906022539 92.2509190163717 -33.1924389025954 -11.0308589470956
 340000000 -32.9261530012771 -42.4197294220006 -0.111166328719444 84.1460398546619 -0.111166328719445 84.1460398546619 -33.8192852027399 -21.5338290712355
 350000000 -33.6155051118062 -53.3909102687823 -0.113536742498676 76.0417459256234 -0.113536742498676 76.0417459256234 -34.7354724124963 -31.7452915082114
 360000000 -34.5366253075403 -64.6535077125109 -0.115913634292748 67.9380301031136 -0.115913634292749 67.9380301031136 -35.9886873928652 -41.6770389776427
 370000000 -35.7058132690595 -76.5029765153126 -0.118290184035822 59.8348785646249 -0.118290184035821 59.8348785646249 -37.6676336199275 -51.3496608383419
 380000000 -37.1485573987112 -89.4763776794615 -0.120660336058572 51.7322723594042 -0.120660336058575 51.7322723594042 -39.9465971715708 -60.8108950037244
 390000000 -38.8907975470242 -104.56862510211 -0.123018821475147 43.6301887947454 -0.123018821475151 43.6301887947454 -43.2185412315282 -70.1932266731966
 400000000 -40.9059513027799 -123.631161239877 -0.12536114538718 35.5286026236949 -0.125361145387181 35.5286026236949 -48.6709072525242 -80.0539361519314
 410000000 -42.9002945188715 -149.63031909318 -0.12768355012451 27.4274870361277 -0.127683550124516 27.4274870361277 -66.1611083064483 -104.932573050073
 420000000 -43.9031380106285 176.20640710461 -0.129982963288018 19.3268144663517 -0.129982963288018 19.3268144663517 -51.37564866295 89.0280750879462
 430000000 -43.0255957559451 141.568917229654 -0.132256937215221 11.2265572362851 -0.13225693721522 11.2265572362851 -44.7947809443656 79.0702726542941
 440000000 -41.0838224181948 114.733882384684 -0.134503584713752 3.12668805556348 -0.13450358471376 3.12668805556338 -41.2261099552992 70.4551348722338
 450000000 -39.1048162485174 94.9284814629577 -0.136721514487694 -4.97281960001602 -0.136721514487693 -4.97281960001612 -38.831118006692 62.1477663991162
 460000000 -37.4208086133393 79.2257424533025 -0.138909768583064 -13.0719912115749 -0.138909768583066 -13.0719912115748 -37.0816398312472 53.9274357028129
 470000000 -36.0664108658717 65.7850161576583 -0.141067763347993 -21.1708510235906 -0.141067763347997 -21.1708510235906 -35.7544242391159 45.6994569968312
 480000000 -35.0114700660624 53.6431975403177 -0.143195234791043 -29.2694219177566 -0.143195234791041 -29.2694219177566 -34.7368295168881 37.4101595399993
 490000000 -34.2215184526 42.2959445655667 -0.145292188780483 -37.3677253405936 -0.145292188780483 -37.3677253405936 -33.9664076550592 29.0262329901516
 500000000 -33.6692904804042 31.4705080339808 -0.147358856217371 -45.4657812732732 -0.147358856217373 -45.4657812732732 -33.406902344548 20.5265211492099
 510000000 -33.3353325005323 21.0141729896047 -0.149395653105604 -53.5636082340441 -0.149395653105605 -53.5636082340441 -33.0372024963762 11.8967191714197
 520000000 -33.206866995174 10.8371835770452 -0.151403145304776 -61.6612233053493 -0.151403145304774 -61.6612233053493 -32.8458424108788 3.12461664356403
 530000000 -33.2770069856367 0.881078884224376 -0.15338201766807 -69.7586421791864 -0.153382017668071 -69.7586421791864 -32.8282680749936 -5.80489278750694
 540000000 -33.5447874491484 -8.90083524377921 -0.155333047221987 -77.8558792155026 -0.15533304722199 -77.8558792155026 -32.9857112349533 -14.9155993281452
 550000000 -34.0161995160626 -18.5575490562547 -0.157257080025089 -85.95294750946 -0.157257080025091 -85.95294750946 -33.3251896949451 -24.2474966476482
 560000000 -34.7065618162033 -28.1534401280083 -0.159155011342958 -94.0498589642696 -0.159155011342965 -94.0498589642696 -33.8605086267724 -33.8679663189413
 570000000 -35.6450440778976 -37.7855970770005 -0.161027768786906 -102.146624367007 -0.161027768786905 -102.146624367007 -34.6144029611252 -43.890815806862
 580000000 -36.8832766094784 -47.6155115029046 -0.162876298083253 -110.243253465401 -0.162876298083254 -110.243253465401 -35.6222212394533 -54.5127339450122
 590000000 -38.5127774098218 -57.9423776540624 -0.164701551162764 -118.339755044074 -0.164701551162762 -118.339755044074 -36.9376874026073 -66.0907046381534
 600000000 -40.703732090922 -69.4107776612191 -0.166504476284987 -126.436136999077 -0.166504476284986 -126.436136999077 -38.6400594257987 -79.3235459612335
 610000000 -43.8003128000426 -83.7644661216164 -0.168286009938657 -134.532406409891 -0.168286009938657 -134.532406409891 -40.8308940984865 -95.7178505593107
 620000000 -48.5116238938029 -107.7442471807 -0.170047070283713 -142.628569608295 -0.170047070283714 -142.628569608295 -43.5297387273769 -118.775288072597
 630000000 -53.2714719497532 -172.084841207987 -0.171788551926106 -150.724632243718 -0.171788551926104 -150.724632243718 -45.9801369891392 -154.981582409181
 640000000 -48.2306137709595 124.84432480366 -0.173511321838413 -158.82059934482 -0.173511321838412 -158.82059934482 -45.742365590336 159.494762366683
 650000000 -43.4322643838181 101.08502205212 -0.175216216261331 -166.916475377188 -0.175216216261332 -166.916475377189 -43.1672780547351 125.561204121125
 660000000 -40.2394082678073 86.5214287776543 -0.176904038440015 -175.012264297128 -0.176904038440016 -175.012264297128 -40.5709233536621 103.814533146903
 670000000 -37.9561755779687 74.6923499221078 -0.178575557067386 176.892030398432 -0.178575557067391 176.892030398432 -38.505319278543 88.0246674909046
 680000000 -36.2466657164099 63.9406610473513 -0.18023150532234 168.796405625792 -0.180231505322338 168.796405625792 -36.9205603209583 75.1193442909858
 690000000 -34.9434343614268 53.6784879744044 -0.1818725804049 160.700858671989 -0.181872580404903 160.700858671989 -35.7158040777274 63.7833194460922
 700000000 -33.9541853339101 43.6546762934572 -0.183499443483754 152.605387155782 -0.183499443483753 152.605387155782 -34.8135350609693 53.4047437032751
 710000000 -33.2238890426076 33.7489413108433 -0.185112719982284 144.509988991934 -0.185112719982284 144.509988991934 -34.1594460222191 43.6647095647674
 720000000 -32.7179282935666 23.8971577165079 -0.18671300013993 136.414662358622 -0.186713000139932 136.414662358622 -33.7161955609975 34.371974689308
 730000000 -32.4139936804115 14.0582643961409 -0.188300839794198 128.319405667752 -0.188300839794196 128.319405667752 -33.4595394845333 25.3912686126867
 740000000 -32.2980484736466 4.19664629544818 -0.189876761336637 120.224217538018 -0.189876761336638 120.224217538018 -33.3767384751003 16.6134645017473
 750000000 -32.3623990549602 -5.72941794528936 -0.191441254803038 112.129096770481 -0.191441254803035 112.129096770481 -33.4660774799357 7.94711379754882
 760000000 -32.604982578387 -15.7776293634406 -0.192994779063959 104.034042326506 -0.192994779063961 104.034042326506 -33.7367238637545 -0.680763741400221
 770000000 -33.0294517073269 -26.0330239807033 -0.194537763087137 95.9390533078679 -0.194537763087137 95.9390533078679 -34.2091018249965 -9.32359933304538
 780000000 -33.6458395744824 -36.624679169261 -0.196070607247775 87.8441289388481 -0.196070607247777 87.8441289388481 -34.9169991083854 -18.0189457808752
 790000000 -34.4715873856993 -47.7544332002987 -0.197593684666505 79.7492685501751 -0.197593684666507 79.7492685501751 -35.9136862156256 -26.7981933752943
 800000000 -35.53227802068 -59.7508765048091 -0.199107342558936 71.6544715646418 -0.199107342558935 71.6544715646418 -37.2865959771322 -35.7037109452764
 810000000 -36.8594579731209 -73.1760682075559 -0.200611903582737 63.5597374842633 -0.200611903582735 63.5597374842633 -39.1928018906101 -44.8240632882377
 820000000 -38.4751923504644 -89.0361937563203 -0.202107667171329 55.4650658788416 -0.202107667171329 55.4650658788416 -41.9584666735636 -54.4024673307766
 830000000 -40.3248249183026 -109.126070246469 -0.203594910845662 47.3704563758089 -0.203594910845661 47.3704563758089 -46.4575007649238 -65.3964902804537
 840000000 -42.0553762989884 -135.981825372724 -0.205073891496605 39.2759086512412 -0.205073891496604 39.2759086512412 -57.0348176924976 -88.2382766670157
 850000000 -42.7388235596425 -169.624148205361 -0.206544846632993 31.1814224219313 -0.206544846632992 31.1814224219313 -53.0057174687993 115.54701043423
 860000000 -41.7600689003221 157.501925435299 -0.208007995591292 23.0869974384286 -0.208007995591291 23.0869974384286 -44.8306999116787 99.2915685228794
 870000000 -39.9099167011234 131.874944644816 -0.209463540703915 14.9926334789541 -0.209463540703915 14.9926334789541 -40.724124868776 88.8310852520241
 880000000 -38.0342762300806 112.626208833454 -0.210911668424384 6.89833034411343 -0.210911668424384 6.89833034411343 -38.035121179127 79.3921755626512
 890000000 -36.414192800517 97.2643697296944 -0.212352550408647 -1.19591214766639 -0.212352550408639 -1.19591214766639 -36.0971602417589 70.3185246298551
 900000000 -35.0823531875141 84.1531626650112 -0.213786344551602 -9.29009416404394 -0.213786344551599 -9.29009416404396 -34.6409628870579 61.4216223363548
 910000000 -34.0117517030829 72.3865293629336 -0.215213195980101 -17.3842158620682 -0.215213195980102 -17.3842158620681 -33.5314926342432 52.6274085207494
 920000000 -33.1696033752076 61.4577489987873 -0.216633238002023 -25.4782773909394 -0.216633238002018 -25.4782773909394 -32.6921612575216 43.900188519018
 930000000 -32.529262978547 51.0682740320048 -0.21804659301352 -33.5722788942683 -0.218046593013519 -33.5722788942683 -32.0762519289148 35.218981272459
 940000000 -32.071657165337 41.0309100708123 -0.219453373365784 -41.6662205118748 -0.219453373365783 -41.6662205118748 -31.6542748207454 26.5681705127826
 950000000 -31.7845399958719 31.2201491750403 -0.220853682192967 -49.7601023811648 -0.220853682192966 -49.7601023811648 -31.4078059963634 17.9329942366901
 960000000 -31.6616425352872 21.5452869351611 -0.222247614203506 -57.8539246381087 -0.222247614203504 -57.8539246381087 -31.3263693148049 9.29683798080083
 970000000 -31.7022079240779 11.9345736028474 -0.22363525643728 -65.9476874178524 -0.22363525643728 -65.9476874178524 -31.4059567791305 0.639064501312027
 980000000 -31.9110492708001 2.32439972028045 -0.225016688991186 -74.0413908549741 -0.225016688991188 -74.0413908549741 -31.6486022530847 -8.06742213215618
 990000000 -32.2992626751726 -7.35013052769654 -0.226391985715616 -82.1350350834068 -0.226391985715614 -82.1350350834068 -32.0628324440319 -16.8597562659313
 1000000000 -32.8858710510147 -17.1664466556313 -0.227761214885244 -90.2286202360287 -0.227761214885244 -90.2286202360287 -32.6651155100667 -25.7912841502058
 1010000000 -33.7009792908822 -27.2322093458493 -0.229124439846969 -98.3221464439286 -0.229124439846974 -98.3221464439286 -33.4827864730399 -34.9432982861391
 1020000000 -34.7916439806269 -37.7191372615297 -0.230481719648639 -106.415613835343 -0.230481719648639 -106.415613835343 -34.5595709096976 -44.4492744978331
 1030000000 -36.2329804574014 -48.938114130527 -0.23183310965216 -114.509022534254 -0.231833109652159 -114.509022534254 -35.9662249319511 -54.5500017815309
 1040000000 -38.149650013374 -61.5329371084166 -0.233178662135019 -122.602372658627 -0.233178662135019 -122.602372658627 -37.8221011488178 -65.7359611036391
 1050000000 -40.7542156332382 -77.0773867289867 -0.234518426884529 -130.695664318275 -0.234518426884527 -130.695664318275 -40.3404881100337 -79.185116279135
 1060000000 -44.343938942239 -100.309420906844 -0.235852451789618 -138.788897612299 -0.235852451789617 -138.788897612299 -43.902359909514 -98.4670554621059
 1070000000 -48.1175086978563 -145.661261301498 -0.237180783435526 -146.882072626071 -0.237180783435528 -146.882072626071 -48.5519494664077 -137.167620915063
 1080000000 -46.5823701086834 154.694515346872 -0.238503467707135 -154.975189427697 -0.238503467707139 -154.975189427697 -48.3998989385196 155.232267041663
 1090000000 -42.5237978693219 122.160825311044 -0.239820550407879 -163.068248063875 -0.239820550407877 -163.068248063875 -43.7204865455383 117.531739164208
 1100000000 -39.4199317176735 103.527408377256 -0.241132077901526 -171.161248555077 -0.241132077901524 -171.161248555077 -40.172225516447 98.4477266012267
 1110000000 -37.173136154709 89.762157414939 -0.242438097786057 -179.254190889907 -0.242438097786057 -179.254190889907 -37.6564062092371 84.9441196953492
 1120000000 -35.506443025179 78.1475073792463 -0.243738659609024 172.652924981491 -0.243738659609028 172.652924981491 -35.799520365619 73.5930841043069
 1130000000 -34.2437759843902 67.6931067714886 -0.245033815637376 164.560099155173 -0.245033815637376 164.560099155173 -34.3940883428732 63.2547847101115
 1140000000 -33.2757163330137 57.915008510842 -0.246323621694126 156.467331782505 -0.246323621694125 156.467331782505 -33.3246400096903 53.452897956352
 1150000000 -32.5373371412101 48.5010380662213 -0.247608138079862 148.374623080955 -0.24760813807986 148.374623080955 -32.5234693908756 43.9536760467598
 1160000000 -31.9949711460673 39.2388086610683 -0.248887430597589 140.281973346921 -0.248887430597589 140.281973346921 -31.9496345769286 34.6279795981906
 1170000000 -31.6337949793805 29.9989529268924 -0.250161571704996 132.189382971074 -0.250161571704997 132.189382971074 -31.5786437361455 25.3973655818063
 1180000000 -31.4487548594836 20.7090329236233 -0.251430641822197 124.096852456822 -0.251430641822197 124.096852456822 -31.3971940533436 16.2099904157325
 1190000000 -31.4404737353122 11.3240667067177 -0.252694730828662 116.004382442675 -0.252694730828662 116.004382442675 -31.4005413247641 7.02852595917072
 1200000000 -31.6144984857538 1.80457337452521 -0.253953939791222 107.911973729509 -0.253953939791219 107.911973729509 -31.5914470321186 -2.17664982833689
 1210000000 -31.9821736179299 -7.89899759586049 -0.255208382971945 99.8196273140661 -0.255208382971943 99.8196273140661 -31.9802735427783 -11.431857933397
 1220000000 -32.5625820005513 -17.8618460532175 -0.256458190177243 91.727344430413 -0.256458190177247 91.727344430413 -32.5860806896622 -20.7636883438519
 1230000000 -33.3858824468597 -28.2088941104178 -0.257703509520007 83.6351266016946 -0.257703509520007 83.6351266016946 -33.4385610363057 -30.2043577728894
 1240000000 -34.4990424006382 -39.1622371250858 -0.25894451068225 75.5429757052802 -0.25894451068225 75.5429757052802 -34.5801786380494 -39.8112664144478
 1250000000 -35.97562845488 -51.1486003278679 -0.260181388781021 67.4508940555554 -0.260181388781021 67.4508940555554 -36.0685208440377 -49.7601657921822
 1260000000 -37.9305275261622 -65.0756893619558 -0.261414368956608 59.3588845101747 -0.261414368956608 59.3588845101747 -37.9960953027701 -60.6999883985319
 1270000000 -40.521888890245 -83.1404355501707 -0.26264371181443 51.2669506078911 -0.262643711814429 51.2669506078911 -40.5988156680068 -74.5672220844153
 1280000000 -43.7325705541335 -111.18949469262 -0.263869719855683 43.175096749416 -0.263869719855686 43.175096749416 -44.4127197369551 -96.575225371776
 1290000000 -45.7346013935878 -158.221933750118 -0.265092745008733 35.083328437699 -0.265092745008733 35.083328437699 -48.9993611138892 -145.561025732763
 1300000000 -43.5732328054583 155.222893952752 -0.266313197297875 26.9916526014829 -0.266313197297876 26.9916526014829 -46.6517564624653 146.963969140545
 1310000000 -40.2911961109553 127.660074612458 -0.267531554495795 18.9000780374284 -0.267531554495798 18.9000780374283 -41.9330356883699 115.957596917466
 1320000000 -37.6338379255288 109.926578064182 -0.268748372180307 10.8086160240023 -0.268748372180304 10.8086160240023 -38.6270919159286 98.8311486479599
 1330000000 -35.601877190526 96.3065972436296 -0.269964292704867 2.7172811889338 -0.269964292704859 2.71728118893379 -36.2766626550542 86.0178159381189
 1340000000 -34.0356776260868 84.6463873872895 -0.271180049668764 -5.37390724119631 -0.271180049668758 -5.37390724119631 -34.5277000699579 74.9971760144306
 1350000000 -32.8199596956522 74.0463833321862 -0.27239646040572 -13.4649236023838 -0.27239646040572 -13.4649236023838 -33.1920972168632 64.8749799274838
 1360000000 -31.8807036501361 64.076152728569 -0.273614390282804 -21.5557330243084 -0.273614390282804 -21.5557330243084 -32.164423114738 55.2537452413873
 1370000000 -31.1705110847377 54.5055971461755 -0.274834653438083 -29.6462871525811 -0.274834653438083 -29.6462871525811 -31.3818667833395 45.925856611448
 1380000000 -30.6589432432441 45.2003863274643 -0.276057771123898 -37.7365173541207 -0.2760577711239 -37.7365173541207 -30.8055861766957 36.7681061056671
 1390000000 -30.3269146815708 36.0759775012457 -0.277283406222978 -45.8263236022125 -0.277283406222979 -45.8263236022125 -30.411454698402 27.6984497843874
 1400000000 -30.1635575714627 27.0750153999986 -0.27850903832676 -53.9155557469544 -0.278509038326761 -53.9155557469544 -30.1852270911603 18.6553086553485
 1410000000 -30.1646213277119 18.1548957968993 -0.279726777880848 -62.0039811373648 -0.279726777880845 -62.0039811373648 -30.1200061178957 9.5857719255622
 1420000000 -30.331959427959 9.2799270868656 -0.280915362703427 -70.0912281374814 -0.28091536270343 -70.0912281374814 -30.2150813755615 0.437135033045585
 1430000000 -30.6739809538584 0.415374083298933 -0.282018893530016 -78.1766923067617 -0.282018893530013 -78.1766923067617 -30.47575928305 -8.85110528002107
 1440000000 -31.20723374962 -8.47840407724179 -0.282887133952026 -86.2594242412637 -0.282887133952025 -86.2594242412637 -30.9141024993103 -18.3571027301794
 1450000000 -31.9596932100664 -17.4537573682969 -0.283106890114958 -94.3383189370253 -0.28310689011496 -94.3383189370253 -31.5507156921083 -28.1916074418899
 1460000000 -32.9771457786887 -26.5894032427407 -0.281643975558288 -102.414765796758 -0.28164397555829 -102.414765796758 -32.4179396502858 -38.5246365647241
 1470000000 -34.3360571035923 -36.0200672837564 -0.277402608683011 -110.503911698184 -0.277402608683015 -110.503911698184 -33.5650592450284 -49.6398501207084
 1480000000 -36.1720691938122 -46.0142524713583 -0.274191489086037 -118.626745050281 -0.274191489086038 -118.626745050281 -35.0659692940172 -62.0590584135107
 1490000000 -38.7530547014571 -57.2293676969534 -0.276081612533363 -126.751886213457 -0.276081612533363 -126.751886213457 -37.0256215788166 -76.8589966256862
 1500000000 -42.7105251319563 -71.8882821546576 -0.279508444485207 -134.858320310449 -0.279508444485207 -134.858320310449 -39.5470532273723 -96.5350033839438
 1510000000 -49.8474238752091 -104.036249358183 -0.282452955320271 -142.954468089616 -0.282452955320271 -142.954468089616 -42.3809868450565 -126.849987525604
 1520000000 -50.3638384216521 150.160898298665 -0.284804573811453 -151.046792945601 -0.284804573811454 -151.046792945601 -43.5365926957954 -172.149753650113
 1530000000 -42.7913860681503 115.07496934481 -0.286747060204995 -159.137780894606 -0.286747060204996 -159.137780894606 -41.3984490100046 146.947142415326
 1540000000 -38.5571111991815 99.8556307438567 -0.288424778675943 -167.228319044366 -0.288424778675942 -167.228319044366 -38.5184083371412 121.266644100949
 1550000000 -35.7717076998324 88.2991866598455 -0.289927829835259 -175.31873052782 -0.289927829835256 -175.31873052782 -36.1273308459133 103.889916883365
 1560000000 -33.7659780541455 78.0018573604147 -0.291311254859593 176.59086599854 -0.291311254859594 176.59086599854 -34.2619632527152 90.3444361356298
 1570000000 -32.2589012972598 68.2943218276903 -0.292609443894699 168.500429536143 -0.292609443894699 168.500429536143 -32.8069384555393 78.7518112582956
 1580000000 -31.1072217141387 58.9234117535362 -0.293844594815589 160.409949468234 -0.293844594815589 160.409949468234 -31.668478628201 68.2667668617828
 1590000000 -30.2279249269696 49.7701102469769 -0.29503151609486 152.319426985451 -0.295031516094859 152.319426985451 -30.7830602200287 58.4626360733514
 1600000000 -29.5688678392341 40.7632647590742 -0.296180393244205 144.22886751053 -0.296180393244204 144.22886751053 -30.1089701331017 49.1021319746506
 1610000000 -29.0961006586093 31.8479966573994 -0.297298427109056 136.138277563126 -0.297298427109054 136.138277563126 -29.619238743016 40.04358559103
 1620000000 -28.7878374690621 22.9740162015197 -0.298390834299423 128.04766348864 -0.298390834299423 128.04766348864 -29.2970983338836 31.1984879280404
 1630000000 -28.6312783827853 14.0919365608018 -0.299461476689555 119.957030988077 -0.299461476689555 119.957030988077 -29.1332600362675 22.510417687568
 1640000000 -28.6207582512932 5.15208003657691 -0.300513268756396 111.866384992976 -0.300513268756399 111.866384992976 -29.1244189275267 13.9437617092842
 1650000000 -28.7566600283681 -3.89716230383258 -0.301548448007743 103.775729684533 -0.301548448007745 103.775729684533 -29.2726631747112 5.47739746635428
 1660000000 -29.0449501123242 -13.1130569701587 -0.302568758752277 95.685068567234 -0.302568758752278 95.685068567234 -29.5856827985694 -2.89872837213586
 1670000000 -29.4973703443571 -22.56565289494 -0.303575579651278 87.5944045572062 -0.303575579651275 87.5944045572062 -30.0778835967381 -11.184870323713
 1680000000 -30.1324199211584 -32.3504618416875 -0.304570013964959 79.5037400683252 -0.304570013964959 79.5037400683252 -30.7728028352992 -19.3704472932777
 1690000000 -30.9773632349166 -42.6115293685261 -0.30555295452762 71.4130770895168 -0.305552954527621 71.4130770895168 -31.7077791766605 -27.4293691913213
 1700000000 -32.0715845164979 -53.5863522296453 -0.306525131275724 63.3224172514907 -0.306525131275725 63.3224172514907 -32.9431258547772 -35.3077254716121
 1710000000 -33.4712907530403 -65.7010760374533 -0.307487146521426 55.2317618831651 -0.307487146521424 55.2317618831651 -34.581584014863 -42.8916115493489
 1720000000 -35.2525040527447 -79.7906133408788 -0.308439501479357 47.141112058865 -0.308439501479353 47.141112058865 -36.8152273751637 -49.9109254942415
 1730000000 -37.4896549777953 -97.6377268569301 -0.309382616459454 39.0504686375925 -0.309382616459452 39.0504686375925 -40.0635079725327 -55.5666475866904
 1740000000 -40.0742651120385 -123.100814866163 -0.310316846409888 30.9598322956218 -0.310316846409891 30.9598322956218 -45.5367906874941 -56.1656658967191
 1750000000 -41.9203940147363 -161.117912373647 -0.311242493004395 22.8692035535566 -0.311242493004392 22.8692035535566 -56.4055699997489 1.10372053469275
 1760000000 -41.0737818290072 156.919354960669 -0.31215981413047 14.7785827988013 -0.312159814130471 14.7785827988013 -46.1666956466254 72.8213832766503
 1770000000 -38.6062131756293 126.743271151286 -0.313069031402733 6.68797030426219 -0.313069031402736 6.68797030426214 -40.3333119658038 73.1786840019799
 1780000000 -36.2374054600345 106.470451702634 -0.313970336159687 -1.40263375606866 -0.313970336159687 -1.40263375606866 -36.9252812373033 67.6492043421529
 1790000000 -34.3274654513628 91.1980363978582 -0.314863894284972 -9.49322929409638 -0.314863894284974 -9.49322929409636 -34.5930498542795 60.6020421498049
 1800000000 -32.834153585683 78.462441165763 -0.315749850109908 -17.5838162967306 -0.31574985010991 -17.5838162967306 -32.8849554220159 52.9321656130805