# Hz S DB R 50
!Touchstone multiport model file <C:\work\PySI\TestSignalIntegrity\OysterSimulation\ResampledSimbeor\Cable2_resampled.s2p>
!Created on 22 Aug 18, at 17:55:28.
!Created with Simbeor THz 2018.01(64bit) of Simberian Inc. built on Jul 20 2018

!Output from MultiportParameters of Simbeor.
!Multiport parameters: DataOrigin=Simulation DataOriginName="Project(1).Cable2_resampled_resampled.LNS"
!RESAMPLED_RCM: Max_RMS_Error=0.00476597; FrqLow=0; FrqHigh=4e+10; MaxTimeResolution=1.25e-11; PassivityState=1; ReciprocityState=1; 
!RATIONAL COMPACTOR: Precision: Normal; Extract Delay: ON; Extrapolate to DC: ON; Extrapolate to Infinity: OFF; Enforce Passivity: ON; Enforce Reciprocity: ON; Band Limit Factor: 1; Auto-Adjust Config: OFF

!Uncomment the following lines with keywords in square brakets to support IBIS forum specification 2.0.
![Version] 2.0 !This line should be the first in file, preceeding the line starting with #.
![Number of Ports] 2
![Number of Frequencies] 8001
![Two-Port Data Order] 21_12
![Reference] 50 50

!!!!Multiport descriptor profile: InputCount=2 TotalPortCount=2
!DescriptorOutline={DescriptorType=SMatrix InputSpace=Terminal NormalizationType=CommonZo NormalizationCommonZo=50 Ohm OutputFormat=DBMagnitudeAngle}
!InputProfile={Name="IO1" IsTLineInput=False InputNumber=1 PortCount=1 FirstPortNumber=1 InputSpace=Terminal BlockType=SBlock NormalizationType=CommonZo Zo=50}
!InputProfile={Name="IO2" IsTLineInput=False InputNumber=2 PortCount=1 FirstPortNumber=2 InputSpace=Terminal BlockType=SBlock NormalizationType=CommonZo Zo=50}

!!!Global port number to input_name/local_port_number correspondence:
!Port 1 -> "IO1"/local_port_1 (terminal)
!Port 2 -> "IO2"/local_port_1 (terminal)
!!!!End of descriptor profile.

!Frequency Hz 20.0*log(|S[1,1]|) arg(S[1,1]) 20.0*log(|S[2,1]|) arg(S[2,1]) 20.0*log(|S[1,2]|) arg(S[1,2]) 20.0*log(|S[2,2]|) arg(S[2,2])
 0 -45.1171449815066 0 -0.0349867935519465 0 -0.0349867935518845 0 -52.0781933223688 0
 10000000 -44.2075926607733 16.571875252049 -0.0376138915327558 -8.20527048169165 -0.0376138915327548 -8.20527048169167 -48.8470262789471 36.6550836989842
 20000000 -42.3474215015488 25.0865060910662 -0.0439196572675506 -16.3883172880569 -0.0439196572675525 -16.3883172880569 -44.8820320741772 44.6564290841993
 30000000 -40.5392720377589 26.6524459836506 -0.0502709120059166 -24.5444296309881 -0.0502709120059156 -24.5444296309881 -42.104564911163 42.5263419652344
 40000000 -39.0821978179587 24.2913209581295 -0.0545698333277956 -32.6910757053474 -0.0545698333277947 -32.6910757053474 -40.1702839765251 36.9893763656281
 50000000 -37.990201043621 19.9038880339442 -0.0582582240284137 -40.8424718611837 -0.0582582240284166 -40.8424718611837 -38.8101274262933 30.1037057317782
 60000000 -37.2145598944801 14.5416270026591 -0.0629156508724673 -48.9944437788175 -0.0629156508724663 -48.9944437788175 -37.8670717621929 22.6964315482144
 70000000 -36.6986202911772 8.79969929950636 -0.0684050948396268 -57.1398620124485 -0.0684050948396239 -57.1398620124485 -37.2417269106536 15.1730019460021
 80000000 -36.3892067674073 3.01579340170246 -0.0740375593754757 -65.2769864259747 -0.0740375593754708 -65.2769864259747 -36.8647715806872 7.74958049334888
 90000000 -36.2383047951201 -2.64071306246249 -0.0793440199689523 -73.4072349468855 -0.0793440199689514 -73.4072349468855 -36.6834737026581 0.53289419015708
 100000000 -36.204274192404 -8.1354399724762 -0.0841294163222824 -81.5326489629744 -0.0841294163222815 -81.5326489629744 -36.6553114056531 -6.45729679714264
 110000000 -36.2556172970538 -13.5548417335342 -0.0883598777680309 -89.6549489285546 -0.0883598777680289 -89.6549489285546 -36.7466530235394 -13.2886915884742
 120000000 -36.3769331378427 -19.0840980234554 -0.0920749461256858 -97.775375502286 -0.0920749461256858 -97.775375502286 -36.9353418847307 -20.1186137268342
 130000000 -36.5743984815948 -24.9650717038613 -0.0953402037807502 -105.894765795098 -0.0953402037807531 -105.894765795098 -37.2153187354663 -27.1837666197781
 140000000 -36.8780113136663 -31.4444913926803 -0.0982251201779044 -114.013664716054 -0.0982251201779035 -114.013664716054 -37.6006097884894 -34.776627523431
 150000000 -37.3406413681304 -38.7382564067652 -0.100793860896651 -122.132417680819 -0.100793860896648 -122.132417680819 -38.1267190216386 -43.2256690268139
 160000000 -38.0377132023902 -47.0357072257159 -0.103102231827597 -130.251237480671 -0.103102231827595 -130.251237480671 -38.8497577742268 -52.9100629749172
 170000000 -39.0739079086689 -56.5612022970505 -0.105197343676129 -138.37024991973 -0.10519734367613 -138.37024991973 -39.8450945618488 -64.3487723260832
 180000000 -40.6064428795524 -67.738850813386 -0.107118368640816 -146.489524236628 -0.107118368640814 -146.489524236628 -41.2034637483426 -78.4360233146316
 190000000 -42.9054474901945 -81.6802449468389 -0.108897641023566 -154.609093184344 -0.108897641023566 -154.609093184344 -42.9984092031189 -96.994307196373
 200000000 -46.4872092714171 -102.21228107472 -0.110561775331523 -162.728966235443 -0.110561775331521 -162.728966235443 -45.0808956884556 -123.771174427137
 210000000 -51.5790861163708 -147.031215775445 -0.112132673572458 -170.84913825652 -0.112132673572459 -170.84913825652 -46.3326893927644 -162.694423033505
 220000000 -49.9792781127528 136.294574370726 -0.113628383909432 -178.969595202565 -0.113628383909447 -178.969595202564 -45.089533343299 155.47761639543
 230000000 -44.5829075067119 100.538284831422 -0.11506381198114 172.909682151162 -0.115063811981138 172.909682151163 -42.4657948471256 124.38772666965
 240000000 -40.90978628421 81.0852151308685 -0.116451301241836 164.788715772814 -0.116451301241834 164.788715772814 -39.9839610817806 102.182739495189
 250000000 -38.3791890592095 66.0239963202542 -0.117801102736139 156.667528795296 -0.117801102736139 156.667528795296 -37.9825415462258 84.5107201519579
 260000000 -36.5678300427218 52.6214298469896 -0.119121754071504 148.546144506576 -0.119121754071505 148.546144506576 -36.4344333660256 69.1230048252444
 270000000 -35.2625474248167 40.0064839689859 -0.120420384934399 140.424585717827 -0.120420384934397 140.424585717827 -35.2701717333993 54.9752920848391
 280000000 -34.3471739548258 27.8322220446477 -0.121702963660101 132.302874382315 -0.121702963660105 132.302874382315 -34.4333394923043 41.5535628597844
 290000000 -33.7536123065297 15.938639196647 -0.122974496678633 124.18103138012 -0.12297449667863 124.18103138012 -33.884380553454 28.5831316171838
 300000000 -33.4403477178998 4.24164008450701 -0.124239190331243 116.059076411832 -0.124239190331243 116.059076411832 -33.5972022294027 15.9029173294579
 310000000 -33.3822961875917 -7.31232283149369 -0.125500582618901 107.937027963006 -0.125500582618903 107.937027963006 -33.5560128628344 3.40580568236676
 320000000 -33.5658973777128 -18.7700057581311 -0.126761650881851 99.814903313731 -0.126761650881854 99.814903313731 -33.7533343640141 -8.99459001283545
 330000000 -33.9870797497046 -30.1890636344638 -0.128024900162708 91.6927185760446 -0.128024900162707 91.6927185760446 -34.1891451911583 -21.388264627038
 340000000 -34.6512394693992 -41.6576277742109 -0.129292436018624 83.5704887476748 -0.129292436018622 83.5704887476748 -34.8710842193582 -33.8943186568293
 350000000 -35.5751136123607 -53.3236938304242 -0.130566024771569 75.4482277744266 -0.130566024771569 75.4482277744266 -35.8156919176823 -46.6974612992357
 360000000 -36.7908595809788 -65.4489817174109 -0.13184714357344 67.3259486161669 -0.13184714357344 67.3259486161669 -37.0504010858904 -60.1121463823521
 370000000 -38.3525587500256 -78.5232427003581 -0.133137022182583 59.2036633131448 -0.133137022182583 59.2036633131448 -38.6143133169571 -74.7107441641152
 380000000 -40.3418891552377 -93.5385272252999 -0.13443667796819 51.0813830505925 -0.134436677968191 51.0813830505925 -40.5476221922279 -91.5981168331928
 390000000 -42.8429082781239 -112.702826275416 -0.135746945361135 42.9591182203738 -0.135746945361135 42.9591182203738 -42.8218805146616 -112.95993429245
 400000000 -45.6803419936663 -140.989905811635 -0.137068500732355 34.8368784789929 -0.137068500732356 34.8368784789929 -45.0358398902324 -142.396189561936
 410000000 -47.2791771343853 176.408549929104 -0.138401883492287 26.7146728016498 -0.138401883492289 26.7146728016498 -45.8994651693638 179.673379216832
 420000000 -45.6886927576999 134.180758394243 -0.139747514055419 18.5925095322604 -0.13974751405542 18.5925095322604 -44.656721578059 144.276985674941
 430000000 -42.9312198039665 106.37034347705 -0.14110570919458 10.4703964295179 -0.14110570919458 10.4703964295179 -42.5910266850369 118.677205304089
 440000000 -40.5231591967589 87.5787300572273 -0.142476695213507 2.34834070916548 -0.142476695213497 2.34834070916589 -40.6639943281899 100.141587717136
 450000000 -38.620411415289 72.9359935777229 -0.143860619289632 -5.77365091729467 -0.143860619289638 -5.77365091729462 -39.0781097673463 85.4432820700985
 460000000 -37.1348319348456 60.2934515000275 -0.145257559276862 -13.8955722072155 -0.145257559276859 -13.8955722072155 -37.815606782322 72.8153274450953
 470000000 -35.9816743911751 48.6884197070805 -0.146667532207135 -22.0174173544623 -0.146667532207136 -22.0174173544623 -36.8295706537464 61.3465540839048
 480000000 -35.1024505246573 37.6475218292989 -0.148090501689613 -30.1391809598763 -0.148090501689612 -30.1391809598763 -36.0818643595995 50.5421058924293
 490000000 -34.4588764993642 26.9173339602977 -0.149526384371911 -38.2608580042832 -0.149526384371912 -38.2608580042832 -35.5468815551788 40.1158134979378
 500000000 -34.0262368565803 16.3509863888923 -0.150975055601413 -46.3824438238172 -0.150975055601413 -46.3824438238172 -35.2093608597549 29.8922335497869
 510000000 -33.7890326202186 5.85449756551508 -0.152436354401427 -54.5039340873412 -0.152436354401427 -54.5039340873412 -35.062051467393 19.756535819187
 520000000 -33.7384401709969 -4.64218040945682 -0.153910087859206 -62.6253247757601 -0.153910087859208 -62.6253247757601 -35.1042364524493 9.62556124727387
 530000000 -33.8709670314062 -15.2039069002304 -0.155396035007023 -70.7466121630474 -0.155396035007027 -70.7466121630474 -35.3412005509843 -0.572262090667389
 540000000 -34.1879407516083 -25.9062182302948 -0.156893950265002 -78.8677927988114 -0.156893950265001 -78.8677927988114 -35.784679704024 -10.9151295772208
 550000000 -34.6956658307874 -36.8533371697727 -0.158403566504206 -86.9888634922549 -0.158403566504205 -86.9888634922549 -36.454493634344 -21.5102106491746
 560000000 -35.4061290442887 -48.2037272170777 -0.159924597779025 -95.1098212973882 -0.159924597779026 -95.1098212973882 -37.3818078427315 -32.5290969372177
 570000000 -36.3378840057565 -60.2120749090964 -0.161456741771462 -103.230663499372 -0.161456741771463 -103.230663499372 -38.6147209028869 -44.2758236929852
 580000000 -37.5156663670553 -73.305420441457 -0.162999681982704 -111.351387601881 -0.162999681982701 -111.351387601881 -40.2264492260691 -57.3384266887751
 590000000 -38.9632935627278 -88.2282307206624 -0.164553089703202 -119.471991315385 -0.164553089703202 -119.471991315385 -42.3200852178181 -72.9717360067784
 600000000 -40.6699651027011 -106.301717044283 -0.166116625787664 -127.592472546269 -0.166116625787666 -127.592472546269 -44.9736746916554 -94.1269196912883
 610000000 -42.4674483093731 -129.66612684855 -0.167689942257308 -135.712829386691 -0.167689942257312 -135.712829386691 -47.7472053077654 -127.242801507227
 620000000 -43.7495339685989 -160.133040492121 -0.169272683749603 -143.833060105132 -0.169272683749603 -143.833060105132 -48.29078491527 -173.721457984792
 630000000 -43.6024750658661 165.764642843134 -0.17086448883184 -151.953163137553 -0.170864488831839 -151.953163137553 -45.83576747604 148.360046680118
 640000000 -42.1247277411914 136.147810907535 -0.172464991193828 -160.073137079116 -0.172464991193829 -160.073137079116 -43.0320333350091 124.643561403078
 650000000 -40.2523630626453 113.47188448794 -0.174073820732178 -168.192980676412 -0.174073820732179 -168.192980676412 -40.7576949373971 108.041780569704
 660000000 -38.5176526996759 95.6821636524301 -0.1756906045373 -176.31269282014 -0.175690604537304 -176.31269282014 -38.9923478137052 94.7181165349704
 670000000 -37.0550295626401 80.7559624623246 -0.17731496779334 175.567727461775 -0.177314967793342 175.567727461775 -37.626435498852 83.0595796493703
 680000000 -35.8664908135375 67.4830627960559 -0.178946534598767 167.448281010697 -0.178946534598765 167.448281010697 -36.576669077708 72.3290379320847
 690000000 -34.9262230043013 55.1857864508903 -0.180584928715987 159.328968543435 -0.180584928715989 159.328968543435 -35.7879144239942 62.1517659506761
 700000000 -34.2084493846196 43.4739422491002 -0.182229774256189 151.209790658079 -0.182229774256188 151.209790658079 -35.2248096937627 52.3192158991415
 710000000 -33.6931310176832 32.1101084313293 -0.183880696305062 143.090747839539 -0.183880696305064 143.090747839539 -34.8654659093181 42.7056105643703
 720000000 -33.3661793394646 20.93843348823 -0.185537321495043 134.971840464816 -0.18553732149505 134.971840464816 -34.6976982134016 33.2279459910333
 730000000 -33.2186496094022 9.84477128297996 -0.187199278528335 126.853068808015 -0.187199278528334 126.853068808015 -34.7171108861815 23.8240283327201
 740000000 -33.246040006947 -1.26831565395269 -0.188866198654794 118.734433045137 -0.188866198654798 118.734433045137 -34.9265879239414 14.4381078199096
 750000000 -33.4479126158486 -12.5002952778978 -0.190537716108747 110.615933258647 -0.190537716108747 110.615933258647 -35.337077148564 5.00882078088994
 760000000 -33.8277866499283 -23.9706239053258 -0.192213468507267 102.497569441843 -0.192213468507269 102.497569441843 -35.9699336215734 -4.54479785339975
 770000000 -34.3931015744053 -35.8409421260372 -0.193893097213626 94.3793415030441 -0.19389309721363 94.3793415030441 -36.8616776903692 -14.3455996356455
 780000000 -35.1547309598381 -48.348105683682 -0.195576247668188 86.2612492696029 -0.195576247668192 86.2612492696029 -38.0732285083301 -24.6034898973252
 790000000 -36.1245870658045 -61.8582465092336 -0.197262569688909 78.1432924917524 -0.197262569688906 78.1432924917524 -39.7084988745305 -35.7255154890618
 800000000 -37.3070703193627 -76.9557612370918 -0.1989517177442 70.0254708463032 -0.1989517177442 70.0254708463032 -41.9539219120898 -48.6387180198283
 810000000 -38.672500809075 -94.5675043819584 -0.200643351199683 61.9077839401968 -0.200643351199679 61.9077839401968 -45.1568106379346 -65.9847567157789
 820000000 -40.0859889109021 -115.998818817193 -0.202337134540677 53.7902313139234 -0.202337134540677 53.7902313139234 -49.7024761931469 -97.7458525321887
 830000000 -41.1820450588646 -142.270007028905 -0.204032737572199 45.672812444811 -0.204032737572199 45.672812444811 -51.5238417799258 -164.560441313845
 840000000 -41.4054014695244 -171.90436345083 -0.205729835598021 37.5555267501939 -0.205729835598022 37.5555267501939 -46.7879038009883 148.639024117883
 850000000 -40.5819737403092 159.794250958767 -0.207428109579796 29.4383735904654 -0.207428109579792 29.4383735904654 -42.7993690679837 126.955937831334
 860000000 -39.1730415295651 136.128245829887 -0.209127246278188 21.3213522720218 -0.209127246278187 21.3213522720218 -39.9923974440468 112.508557027344
 870000000 -37.6697669723637 116.93825667369 -0.210826938376374 13.2044620500998 -0.210826938376374 13.2044620500998 -37.9310085960744 100.671574513472
 880000000 -36.3009027738556 100.88588141794 -0.212526884587795 5.08770213151576 -0.212526884587799 5.08770213151571 -36.3689663994823 90.030245740918
 890000000 -35.132255204658 86.8477012633012 -0.214226789748592 -3.02892832269235 -0.21422678974859 -3.0289283226924 -35.1715529190358 80.0317273046779
 900000000 -34.1688223316314 74.0904460420389 -0.215926364895984 -11.1454301947147 -0.215926364895984 -11.1454301947147 -34.2600894664092 70.421907045249
 910000000 -33.3985708932074 62.1557068815894 -0.217625327333332 -19.2618044075069 -0.217625327333331 -19.2618044075069 -33.5860232933774 61.0703660146836
 920000000 -32.8073828897827 50.7510603858323 -0.219323400682905 -27.3780519224145 -0.219323400682906 -27.3780519224145 -33.1184502039035 51.9040058957843
 930000000 -32.3835523125247 39.6810685177724 -0.221020314926719 -35.4941737368781 -0.22102031492672 -35.4941737368781 -32.8378054222841 42.8777139611162
 940000000 -32.1188650311862 28.8060917969822 -0.222715806436779 -43.6101708822178 -0.222715806436781 -43.6101708822178 -32.7326445908621 33.9595867326317
 950000000 -32.0086890831148 18.0168269303685 -0.224409617994731 -51.7260444214957 -0.224409617994731 -51.7260444214957 -32.7981734341797 25.1224277547681
 960000000 -32.0518923803107 7.21693551238862 -0.226101498802207 -59.8417954474512 -0.226101498802202 -59.8417954474512 -33.0359667150812 16.3379716839727
 970000000 -32.2508530487515 -3.69099064702523 -0.227791204482003 -67.9574250805091 -0.227791204482006 -67.9574250805091 -33.4547445103878 7.57195532985926
 980000000 -32.6116238847535 -14.8196906072443 -0.229478497070851 -76.072934466857 -0.229478497070851 -76.072934466857 -34.0724198771324 -1.22151974991231
 990000000 -33.1441875240829 -26.3154700510741 -0.231163145004415 -84.188324776591 -0.231163145004415 -84.188324776591 -34.9201175494236 -10.1087558124502
 1000000000 -33.8625185392556 -38.3858328963419 -0.232844923094849 -92.3035972019269 -0.232844923094846 -92.3035972019269 -36.049878529828 -19.1939703956243
 1010000000 -34.7835414773397 -51.345677572085 -0.23452361250151 -100.418752955474 -0.23452361250151 -100.418752955474 -37.5503615884208 -28.6612528072679
 1020000000 -35.9221612162486 -65.6972271753332 -0.236199000695291 -108.533793268574 -0.236199000695293 -108.533793268574 -39.5825617437178 -38.8935600717449
 1030000000 -37.2738173958753 -82.2598420078043 -0.237870881416956 -116.648719389698 -0.237870881416955 -116.648719389698 -42.4747404927841 -50.8962693593858
 1040000000 -38.7613277076993 -102.307018619219 -0.239539054630014 -124.7635325829 -0.239539054630013 -124.7635325829 -47.0270044822467 -68.5013013514641
 1050000000 -40.1094397074785 -127.309512004408 -0.241203326468301 -132.878234126335 -0.2412033264683 -132.878234126335 -54.6020557455367 -119.515621640292
 1060000000 -40.7460281186151 -157.088983455107 -0.242863509179016 -140.992825310826 -0.242863509179016 -140.992825310826 -50.160055297411 149.962738741908
 1070000000 -40.2334664388054 172.618169794147 -0.244519421061141 -149.107307438487 -0.24451942106114 -149.107307438487 -44.1093841745711 124.379135866286
 1080000000 -38.8976806344392 146.655932237584 -0.246170886399979 -157.221681821398 -0.24617088639998 -157.221681821398 -40.4748306997202 110.52305116551
 1090000000 -37.3419007951963 125.838487507848 -0.247817735397848 -165.335949780337 -0.24781773539785 -165.335949780337 -37.9885540791657 99.5144741060407
 1100000000 -35.8932638339804 108.79238823037 -0.249459804101362 -173.450112643552 -0.249459804101363 -173.450112643552 -36.1656868079011 89.5945347959701
 1110000000 -34.6521376348969 94.1664818165513 -0.251096934325768 178.435828254407 -0.251096934325768 178.435828254407 -34.7861298211889 80.199654346785
 1120000000 -33.6300831047722 81.068135136724 -0.252728973576049 170.321871573818 -0.252728973576047 170.321871573818 -33.7338186094653 71.0956041640727
 1130000000 -32.8135416334815 68.9485155617747 -0.254355774965894 162.208015970868 -0.254355774965892 162.208015970868 -32.9414614126235 62.166973015296
 1140000000 -32.1853428946628 57.4647215885678 -0.255977197134113 154.094260098683 -0.255977197134113 154.094260098683 -32.3679522029927 53.3486172133036
 1150000000 -31.7310402834761 46.3919658808054 -0.257593104158953 145.980602608325 -0.257593104158953 145.980602608325 -31.987956965469 44.5987095094145
 1160000000 -31.4404357897103 35.5727292368559 -0.259203365470698 137.867042149736 -0.259203365470701 137.867042149736 -31.7867655714288 35.8866026284608
 1170000000 -31.3077440097109 24.8867677192088 -0.260807855762532 129.753577372649 -0.260807855762535 129.753577372649 -31.7577452407116 27.1866445114229
 1180000000 -31.3315171161492 14.2318779082654 -0.262406454900024 121.640206927454 -0.262406454900024 121.640206927454 -31.9012974752612 18.474401660473
 1190000000 -31.5147029478316 3.50941286245691 -0.263999047829369 113.526929466025 -0.26399904782937 113.526929466025 -32.2249157301256 9.72346498802916
 1200000000 -31.8649723101572 -7.38963649909739 -0.265585524484635 105.413743642511 -0.265585524484633 105.413743642511 -32.7443640397281 0.901381483295615
 1210000000 -32.3953678487177 -18.6021269259578 -0.267165779694054 97.300648114091 -0.267165779694053 97.300648114091 -33.4864327972132 -8.03729783579291
 1220000000 -33.1252241035494 -30.3198255731863 -0.268739713085755 89.1876415416885 -0.268739713085757 89.1876415416885 -34.4944753680956 -17.1649569126253
 1230000000 -34.0809343236223 -42.8371567834162 -0.270307228992854 81.0747225906545 -0.270307228992855 81.0747225906545 -35.8396455955686 -26.6123634816545
 1240000000 -35.2946809754039 -56.6420921886708 -0.271868236358108 72.961889931418 -0.271868236358111 72.961889931418 -37.6454599426417 -36.6500922902041
 1250000000 -36.7936652023857 -72.5932042658262 -0.273422648638496 64.8491422401009 -0.273422648638492 64.8491422401009 -40.1484704327587 -47.9447638796847
 1260000000 -38.5519540228916 -92.2265444173077 -0.274970383709545 56.7364781991025 -0.274970383709547 56.7364781991024 -43.8751401613377 -62.6528086408181
 1270000000 -40.3221399943638 -117.912088684963 -0.276511363769699 48.6238964976531 -0.276511363769696 48.6238964976531 -50.1254946114652 -92.2722790402406
 1280000000 -41.3290808896598 -150.785727574808 -0.278045515244765 40.5113958323372 -0.278045515244764 40.5113958323371 -52.4752659600692 174.874763010875
 1290000000 -40.7415560828279 174.802187514301 -0.279572768692747 32.3989749075896 -0.279572768692747 32.3989749075896 -45.3102769103245 131.905676146148
 1300000000 -39.0378793997106 146.63012262429 -0.281093058708916 24.2866324361613 -0.281093058708918 24.2866324361613 -40.9902839394869 115.192268549473
 1310000000 -37.152681003006 125.310237997599 -0.282606323831233 16.1743671395603 -0.28260632383123 16.1743671395603 -38.1595034272924 103.470824144507
 1320000000 -35.4809475390982 108.42594878745 -0.284112506446417 8.0621777484647 -0.284112506446419 8.06217774846475 -36.1272653482383 93.4337028673769
 1330000000 -34.0943207519649 94.1387896597574 -0.285611552696653 -0.0499369968889445 -0.285611552696669 -0.049936996888892 -34.598499687742 84.1551361551253
 1340000000 -32.9741694620471 81.400846041813 -0.287103412386926 -8.16197834633999 -0.287103412386925 -8.16197834634002 -33.4250650039469 75.2701239978689
 1350000000 -32.0874239850537 69.6239897341718 -0.288588038893001 -16.2739475394651 -0.288588038893002 -16.2739475394651 -32.5243451017604 66.5990006052293
 1360000000 -31.4049716777726 58.4608656283993 -0.290065389070558 -24.3858458052586 -0.290065389070558 -24.3858458052586 -31.8477225301357 58.0380594290728
 1370000000 -30.9047951561961 47.6908001894096 -0.291535423164804 -32.4976743618374 -0.291535423164807 -32.4976743618374 -31.3665134204376 49.5205527884214
 1380000000 -30.5716251895038 37.1608305100982 -0.29299810472138 -40.6094344161665 -0.292998104721379 -40.6094344161665 -31.0650210498311 41.0008902486311
 1390000000 -30.3961134515149 26.7537526176641 -0.294453400498118 -48.7211271638037 -0.294453400498119 -48.7211271638036 -30.9369034429288 32.4473780398996
 1400000000 -30.3741980080787 16.3692874471637 -0.295901280377893 -56.8327537886651 -0.295901280377891 -56.8327537886651 -30.9833545054004 23.8379552302396
 1410000000 -30.5067652968979 5.91089889178738 -0.297341717282389 -64.9443154628098 -0.297341717282392 -64.9443154628099 -31.2125636101285 15.1565032109248
 1420000000 -30.7996337626563 -4.72646813329937 -0.298774687087375 -73.0558133462413 -0.298774687087373 -73.0558133462413 -31.6404267161798 6.38849867369067
 1430000000 -31.2638802523236 -15.6716268379039 -0.300200168538786 -81.1672485867271 -0.300200168538791 -81.1672485867271 -32.292905326785 -2.48506753220627
 1440000000 -31.9164484705395 -27.1003155665726 -0.301618143170223 -89.2786223196371 -0.301618143170227 -89.2786223196371 -33.2111017038119 -11.4976811665577
 1450000000 -32.7806719436248 -39.2750927059488 -0.303028595221555 -97.3899356677932 -0.303028595221554 -97.3899356677932 -34.4616896255632 -20.7171783347218
 1460000000 -33.8852545092141 -52.6193766561388 -0.304431511558922 -105.50118974134 -0.304431511558922 -105.50118974134 -36.1597329383191 -30.294022870671
 1470000000 -35.2562889188678 -67.8585430271054 -0.305826881595897 -113.612385637625 -0.305826881595897 -113.612385637625 -38.5255463622342 -40.6075936226008
 1480000000 -36.882892505936 -86.2667664011941 -0.307214697215941 -121.723524441102 -0.307214697215945 -121.723524441102 -42.0592363598821 -52.8708512672074
 1490000000 -38.5975131684394 -109.876818064642 -0.308594952696336 -129.834607223231 -0.308594952696335 -129.834607223231 -48.2769296734093 -73.5538369626796
 1500000000 -39.8140380673712 -140.340366377671 -0.309967644633221 -137.945635042415 -0.309967644633222 -137.945635042415 -55.3002436099381 -174.876126580225
 1510000000 -39.6629174399846 -174.295919440979 -0.311332771868224 -146.056608943924 -0.311332771868228 -146.056608943924 -45.5017409972632 130.146177765217
 1520000000 -38.2234815591905 156.032263600761 -0.312690335416109 -154.167529959853 -0.31269033541611 -154.167529959853 -40.491573102978 114.447581801477
 1530000000 -36.3836564938802 133.172597101793 -0.314040338394201 -162.278399109077 -0.314040338394205 -162.278399109077 -37.388751956542 103.455568201041
 1540000000 -34.6672679317693 115.250895833021 -0.3153827859528 -170.389217397222 -0.315382785952795 -170.389217397222 -35.2071235402829 93.8838034521756
 1550000000 -33.2117661534794 100.316537655687 -0.316717685207141 -178.499985816647 -0.316717685207141 -178.499985816647 -33.5787541089509 84.9322674291436
 1560000000 -32.0197831531852 87.1774867991612 -0.318045045170838 173.389294653568 -0.31804504517084 173.389294653568 -32.3291879037044 76.3032428968209
 1570000000 -31.0638202665244 75.1567068638369 -0.319364876690292 165.278623047615 -0.319364876690294 165.278623047615 -31.3636326406621 67.8538266791271
 1580000000 -30.3154710694208 63.858363158214 -0.320677192380928 157.167998412958 -0.32067719238093 157.167998412958 -30.6265712794144 59.5022506499048
 1590000000 -29.7519747331337 53.0372592523334 -0.321982006564538 149.057419810308 -0.321982006564537 149.057419810308 -30.0845698506171 51.1960083181351
 1600000000 -29.3568704071366 42.5305719939016 -0.32327933520793 140.946886313599 -0.32327933520793 140.946886313599 -29.7179965663131 42.8994282447075
 1610000000 -29.1193938174871 32.2211938507725 -0.324569195863143 132.836397009956 -0.324569195863141 132.836397009956 -29.5166906905272 34.5882875737089
 1620000000 -29.0338494594301 22.0167093191029 -0.325851607608768 124.725950999652 -0.325851607608767 124.725950999652 -29.4776334560733 26.2469303445945
 1630000000 -29.0992693179808 11.8359080478861 -0.327126590992765 116.615547396063 -0.327126590992763 116.615547396063 -29.6038457812296 17.865893528627
 1640000000 -29.3194422299297 1.59833245730684 -0.328394167976521 108.505185325611 -0.32839416797652 108.505185325611 -29.9042917829443 9.43909796594593
 1650000000 -29.7033742414638 -8.78632498972862 -0.329654361880205 100.394863927703 -0.329654361880205 100.394863927703 -30.3949071387062 0.960196711802374
 1660000000 -30.2662817113375 -19.4323676354316 -0.330907197329423 92.2845823546695 -0.330907197329421 92.2845823546695 -31.1012085095394 -7.58227918366197
 1670000000 -31.0312725086967 -30.5011735349721 -0.332152700203243 84.1743397716865 -0.332152700203243 84.1743397716865 -32.0635535884973 -16.2121967209321
 1680000000 -32.0318342600972 -42.2440729741637 -0.333390897583346 76.0641353567021 -0.333390897583344 76.0641353567021 -33.3476509518683 -24.9795840633159
 1690000000 -33.3146539992515 -55.0897760314126 -0.334621817704502 67.953968300355 -0.334621817704501 67.953968300355 -35.0672963902873 -33.9938720207442
 1700000000 -34.9388457940909 -69.8361001407499 -0.335845489906251 59.8438378058867 -0.335845489906252 59.8438378058867 -37.4410875088607 -43.5251107014979
 1710000000 -36.9498762521354 -88.0809641796809 -0.33706194458594 51.7337430890516 -0.337061944585942 51.7337430890516 -40.9695449831564 -54.4232829221636
 1720000000 -39.2231689630035 -112.988291198155 -0.338271213152743 43.6236833780221 -0.338271213152739 43.6236833780221 -47.2533313497229 -71.2415747565006
 1730000000 -40.8983689120199 -148.312717560092 -0.33947332798294 35.5136579132909 -0.339473327982939 35.5136579132909 -57.1296031970101 179.871026757508
 1740000000 -40.4067975428081 171.74472708314 -0.340668322376641 27.4036659475686 -0.340668322376641 27.4036659475686 -45.0709081232004 121.825017662112
 1750000000 -38.264119110643 140.512794582369 -0.34185623051502 19.2937067456785 -0.341856230515022 19.2937067456785 -39.8033424409654 107.849698178258
 1760000000 -35.9845524245422 118.616578024758 -0.343037087419466 11.1837795844503 -0.343037087419466 11.1837795844503 -36.6256951173935 97.6337546512449
 1770000000 -34.0571613776897 101.976702653199 -0.344210928911269 3.07388375260739 -0.344210928911269 3.07388375260745 -34.4158960534081 88.4917854322923
 1780000000 -32.5055446865433 88.1062441628055 -0.345377791572698 -5.03598144934486 -0.345377791572699 -5.03598144934486 -32.7803699905175 79.8094695138829
 1790000000 -31.2720742723449 75.7806567086922 -0.346537712708916 -13.1458167092359 -0.346537712708912 -13.1458167092359 -31.5370717181455 71.3688602409609
 1800000000 -30.3016603379971 64.3737325474226 -0.347690730311257 -21.2556227033463 -0.347690730311255 -21.2556227033463 -30.5882252249852 63.0723574753816
 1810000000 -29.5530780827814 53.5383321486859 -0.348836883021288 -29.3654000965278 -0.348836883021289 -29.3654000965278 -29.8766286156668 54.8696933333495