# Hz S DB R 50
!Touchstone multiport model file <C:\work\PySI\TestSignalIntegrity\OysterSimulation\ResampledSimbeor\SemiRigidCable1.s2p>
!Created on 22 Aug 18, at 17:55:37.
!Created with Simbeor THz 2018.01(64bit) of Simberian Inc. built on Jul 20 2018

!Output from MultiportParameters of Simbeor.
!Multiport parameters: DataOrigin=Simulation DataOriginName="Project(1).SemiRigidCable1_resampled.LNS"
!RESAMPLED_RCM: Max_RMS_Error=0.0189279; FrqLow=0; FrqHigh=4e+10; MaxTimeResolution=1.25e-11; PassivityState=1; ReciprocityState=1;
!RATIONAL COMPACTOR: Precision: Normal; Extract Delay: ON; Extrapolate to DC: ON; Extrapolate to Infinity: OFF; Enforce Passivity: ON; Enforce Reciprocity: ON; Band Limit Factor: 1; Auto-Adjust Config: OFF

!Uncomment the following lines with keywords in square brakets to support IBIS forum specification 2.0.
![Version] 2.0 !This line should be the first in file, preceeding the line starting with #.
![Number of Ports] 2
![Number of Frequencies] 8001
![Two-Port Data Order] 21_12
![Reference] 50 50

!!!!Multiport descriptor profile: InputCount=2 TotalPortCount=2
!DescriptorOutline={DescriptorType=SMatrix InputSpace=Terminal NormalizationType=CommonZo NormalizationCommonZo=50 Ohm OutputFormat=DBMagnitudeAngle}
!InputProfile={Name="IO1" IsTLineInput=False InputNumber=1 PortCount=1 FirstPortNumber=1 InputSpace=Terminal BlockType=SBlock NormalizationType=CommonZo Zo=50}
!InputProfile={Name="IO2" IsTLineInput=False InputNumber=2 PortCount=1 FirstPortNumber=2 InputSpace=Terminal BlockType=SBlock NormalizationType=CommonZo Zo=50}

!!!Global port number to input_name/local_port_number correspondence:
!Port 1 -> "IO1"/local_port_1 (terminal)
!Port 2 -> "IO2"/local_port_1 (terminal)
!!!!End of descriptor profile.

!Frequency Hz 20.0*log(|S[1,1]|) arg(S[1,1]) 20.0*log(|S[2,1]|) arg(S[2,1]) 20.0*log(|S[1,2]|) arg(S[1,2]) 20.0*log(|S[2,2]|) arg(S[2,2])
 0 -36.3936624101355 180 -0.0589339860972146 0 -0.0589339860972146 0 -55.1072314801453 0
 10000000 -36.384940603127 -178.248650112358 -0.0588591952709402 -2.05801391363591 -0.0588591952709421 -2.0580139136357 -54.7938415455764 -16.5875864009584
 20000000 -36.3588068222095 -176.504809375624 -0.0586392124215482 -4.11635355933233 -0.0586392124215491 -4.11635355933223 -53.9693133990074 -31.2714659951325
 30000000 -36.3153572540587 -174.775999639594 -0.0582874421765936 -6.1753414696063 -0.0582874421765917 -6.1753414696063 -52.8674573647711 -43.2760403793025
 40000000 -36.2547562423061 -173.069761646846 -0.0578269727317154 -8.23529202244535 -0.0578269727317164 -8.23529202244535 -51.6792232676905 -52.8027498106963
 50000000 -36.1772417421318 -171.393649010192 -0.0572915523949155 -10.2965029883538 -0.0572915523949184 -10.2965029883538 -50.5097830365373 -60.3905265859331
 60000000 -36.0831318396133 -169.755205753595 -0.0567266410834848 -12.359241944632 -0.0567266410834867 -12.3592419446319 -49.4039483914832 -66.5533430708608
 70000000 -35.972831383716 -168.161925200714 -0.0561901673377699 -14.4237262888784 -0.0561901673377689 -14.4237262888784 -48.3753213294239 -71.684990307073
 80000000 -35.846837718146 -166.621190264991 -0.0557524688176169 -16.4900964409794 -0.0557524688176169 -16.4900964409793 -47.4236405274041 -76.0667670414551
 90000000 -35.7057445613589 -165.140197445111 -0.0554947663100993 -18.5583834085484 -0.0554947663100974 -18.5583834085484 -46.5432563804428 -79.8962905870385
 100000000 -35.5502432556122 -163.725868781163 -0.0555054964598482 -20.6284743070522 -0.0555054964598472 -20.6284743070522 -45.7269298749523 -83.3131203689863
 110000000 -35.3811208652373 -162.384757442975 -0.0558740153741229 -22.7000824079853 -0.0558740153741229 -22.7000824079853 -44.9674313175467 -86.4172410634566
 120000000 -35.1992549142205 -161.122953349219 -0.0566816822245462 -24.7727309645507 -0.0566816822245481 -24.7727309645507 -44.2581498363473 -89.2815736018784
 130000000 -35.0056048723439 -159.94599520037 -0.0579911457818209 -26.8457609252173 -0.0579911457818238 -26.8457609252173 -43.5932709407397 -91.9603046706823
 140000000 -34.801200787313 -158.858794606979 -0.059835609664215 -28.9183700214681 -0.059835609664214 -28.9183700214681 -42.9677734151073 -94.4944463603423
 150000000 -34.5871296851975 -157.865576751979 -0.0622105556145592 -30.9896838570709 -0.0622105556145611 -30.9896838570708 -42.3773576514849 -96.9155875090717
 160000000 -34.3645205027916 -156.969840449513 -0.0650703923213977 -33.058849896625 -0.0650703923213977 -33.058849896625 -41.8183545633274 -99.2484614665393
 170000000 -34.1345283668556 -156.174338778443 -0.0683315159120915 -35.1251363530785 -0.0683315159120895 -35.1251363530785 -41.2876357234465 -101.512731172039
 180000000 -33.8983190035486 -155.481079885961 -0.07188154292837 -37.1880143571803 -0.071881542928371 -37.1880143571803 -40.7825325202303 -103.724249490133
 190000000 -33.6570539632866 -154.891346235539 -0.0755926993654393 -39.2472058612197 -0.0755926993654393 -39.2472058612197 -40.3007664349818 -105.89596238578
 200000000 -33.4118772041163 -154.405729612644 -0.0793363042142447 -41.3026899581144 -0.0793363042142388 -41.3026899581144 -39.8403901386741 -108.038565244546
 210000000 -33.1639034139718 -154.024178633066 -0.0829953685284782 -43.3546720136685 -0.0829953685284791 -43.3546720136685 -39.3997382040868 -110.160986008579
 220000000 -32.9142082897952 -153.746055300081 -0.0864733444643151 -45.4035283422639 -0.086473344464318 -45.4035283422639 -38.97738599968 -112.270745084737
 230000000 -32.6638208456429 -153.570197264982 -0.0896984193918133 -47.4497417387478 -0.0896984193918113 -47.4497417387478 -38.5721153881566 -114.374226421955
 240000000 -32.4137177026864 -153.494982777664 -0.0926238836855234 -49.4938407470639 -0.0926238836855205 -49.4938407470639 -38.1828860166153 -116.476883801379
 250000000 -32.1648192259927 -153.518395781828 -0.0952257147424084 -51.5363505928895 -0.0952257147424104 -51.5363505928895 -37.8088111756122 -118.58339939059
 260000000 -31.9179873157819 -153.63808913397 -0.097498627590285 -53.5777587044914 -0.097498627590283 -53.5777587044914 -37.4491373864411 -120.697806818664
 270000000 -31.6740246308173 -153.851444444005 -0.0994516269181979 -55.6184941242647 -0.0994516269181999 -55.6184941242647 -37.1032270361372 -122.823587688221
 280000000 -31.4336750131306 -154.155627505493 -0.10110375865228 -57.6589181977923 -0.101103758652281 -57.6589181977923 -36.7705435144307 -124.963748076326
 290000000 -31.1976248903356 -154.547638681582 -0.10248044053534 -59.6993233734975 -0.102480440535338 -59.6993233734975 -36.450638416857 -127.120879876648
 300000000 -30.9665054486092 -155.024357931463 -0.10361051341576 -61.7399372078327 -0.103610513415762 -61.7399372078327 -36.1431404660281 -129.297210598647
 310000000 -30.7408953914737 -155.582584405143 -0.104524006769302 -63.7809292805602 -0.104524006769302 -63.7809292805602 -35.8477458719096 -131.494644331596
 320000000 -30.5213241234383 -156.219070711851 -0.105250535745347 -65.8224193843079 -0.105250535745345 -65.8224193843079 -35.5642099054536 -133.714795911807
 330000000 -30.3082752212068 -156.930552091953 -0.105818218698774 -67.864485917891 -0.105818218698777 -67.864485917891 -35.2923395013063 -135.959019838746
 340000000 -30.1021900774544 -157.713770805924 -0.106253003125395 -69.9071738402587 -0.106253003125397 -69.9071738402587 -35.0319867377206 -138.228435124448
 350000000 -29.9034716225734 -158.565496106725 -0.106578299885236 -71.9505018395082 -0.106578299885238 -71.9505018395082 -34.7830430676779 -140.523946997532
 360000000 -29.7124880482128 -159.482540191453 -0.106814842073764 -73.994468566376 -0.106814842073763 -73.994468566376 -34.5454341966247 -142.846266191552
 370000000 -29.5295764729575 -160.46177053974 -0.106980701496087 -76.0390579029859 -0.106980701496086 -76.0390579029859 -34.3191155205098 -145.195926407268
 380000000 -29.3550465051668 -161.500119043906 -0.10709141052032 -78.0842433092368 -0.107091410520321 -78.0842433092368 -34.1040680538525 -147.573300433542
 390000000 -29.1891836709349 -162.594588322277 -0.107160149566983 -80.1299913283909 -0.107160149566981 -80.129991328391 -33.9002947918956 -149.978615329997
 400000000 -29.0322526863802 -163.74225558453 -0.107197970670782 -82.1762643518999 -0.107197970670786 -82.1762643518999 -33.7078174636776 -152.411967007639
 410000000 -28.8845005630732 -164.940274388804 -0.107214035694051 -84.2230227489607 -0.107214035694049 -84.2230227489607 -33.5266736441143 -154.873334485666
 420000000 -28.7461595434609 -166.185874596382 -0.107215854185522 -86.2702264636974 -0.107215854185524 -86.2702264636974 -33.3569142028849 -157.362594050082
 430000000 -28.6174498697047 -167.47636079296 -0.107209510855376 -88.3178361754833 -0.107209510855376 -88.3178361754833 -33.198601075972 -159.879533490797
 440000000 -28.4985823946118 -168.809109407338 -0.107199876427635 -90.3658141079283 -0.107199876427637 -90.3658141079283 -33.0518053521278 -162.423866547974
 450000000 -28.389761047415 -170.181564720127 -0.10719079845301 -92.4141245609501 -0.107190798453006 -92.4141245609501 -32.9166056712947 -164.99524765588
 460000000 -28.2911851702723 -171.591233917604 -0.107185270704689 -94.4627342291201 -0.107185270704692 -94.4627342291201 -32.793086935189 -167.593287034101
 470000000 -28.2030517436882 -173.035681309742 -0.107185581198395 -96.5116123587869 -0.1071855811984 -96.5116123587869 -32.681339332004 -170.217566142645
 480000000 -28.1255575207978 -174.512521796941 -0.107193439814035 -98.5607307867332 -0.107193439814034 -98.5607307867332 -32.5814576776474 -172.867653490307
 490000000 -28.0589010917699 -176.019413636937 -0.107210087066947 -100.610063894527 -0.107210087066947 -100.610063894527 -32.4935410752863 -175.543120765706
 500000000 -28.0032849006627 -177.554050531482 -0.107236385877684 -102.659588505341 -0.107236385877681 -102.659588505341 -32.417692893521 -178.243559248491
 510000000 -27.9589172379999 -179.114153021068 -0.107272898299222 -104.709283743852 -0.107272898299222 -104.709283743852 -32.3540210614001 179.03140354492
 520000000 -27.9260142333055 179.302540855529 -0.107319949140511 -106.759130874724 -0.107319949140511 -106.759130874724 -32.3026386760542 176.28208702048
 530000000 -27.9048018728959 177.698285712728 -0.107377678321945 -108.809113131133 -0.10737767832194 -108.809113131133 -32.2636649161113 173.508740494039
 540000000 -27.895518069513 176.075339891448 -0.107446083646798 -110.85921554153 -0.107446083646796 -110.85921554153 -32.2372262515825 170.711526004844
 550000000 -27.8984148119345 174.435977603575 -0.107525055497418 -112.909424760343 -0.107525055497419 -112.909424760343 -32.2234579386254 167.890500916713
 560000000 -27.9137604246326 172.782502340915 -0.107614404783153 -114.959728906386 -0.107614404783153 -114.959728906386 -32.2225057857897 165.045600222177
 570000000 -27.9418419698964 171.117261793166 -0.107713885290095 -117.010117411321 -0.1077138852901 -117.010117411321 -32.2345281769955 162.176618408168
 580000000 -27.982967827665 169.442664580687 -0.10782321141734 -119.060580879448 -0.107823211417342 -119.060580879448 -32.2596983357035 159.283190673808
 590000000 -28.0374704917074 167.761199182024 -0.107942072134165 -121.111110959322 -0.107942072134167 -121.111110959322 -32.2982068144305 156.364773210929
 600000000 -28.1057096247213 166.075455527567 -0.108070141859419 -123.161700227204 -0.108070141859417 -123.161700227204 -32.3502641938408 153.420622164468
 610000000 -28.1880754194687 164.38814984444 -0.108207088847979 -125.21234208194 -0.108207088847978 -125.21234208194 -32.4161039758928 150.449770780595
 620000000 -28.2849923181651 162.702153480685 -0.108352581568907 -127.263030650677 -0.108352581568907 -127.263030650677 -32.4959856555854 147.451004122168
 630000000 -28.3969231478869 161.020526618013 -0.108506293474723 -129.313760704666 -0.108506293474725 -129.313760704666 -32.5901979552836 144.422830579028
 640000000 -28.5243737355565 159.346558013825 -0.108667906489071 -131.364527584335 -0.108667906489069 -131.364527584335 -32.6990622036565 141.363449218898
 650000000 -28.6678980716376 157.683812210815 -0.108837113479965 -133.415327132815 -0.108837113479968 -133.415327132815 -32.8229358370078 138.27071180461
 660000000 -28.8281040962733 156.036186037847 -0.109013619935454 -135.4661556371 -0.109013619935455 -135.4661556371 -32.9622159927577 135.142078034506
 670000000 -29.0056601839121 154.407976728015 -0.109197145017173 -137.517009776048 -0.109197145017174 -137.517009776048 -33.1173431510641 131.974562230972
 680000000 -29.2013024002036 152.803964638511 -0.109387422133147 -139.567886574516 -0.109387422133148 -139.567886574516 -33.2888047581328 128.7646692895
 690000000 -29.4158425944858 151.229514426103 -0.109584199143104 -141.618783362937 -0.109584199143103 -141.618783362937 -33.4771387293733 125.508317184583
 700000000 -29.6501773663479 149.690699686038 -0.109787238286799 -143.669697741716 -0.109787238286798 -143.669697741716 -33.6829366759744 122.200742681685
 710000000 -29.9052978955419 148.194457602514 -0.109996315907331 -145.720627549916 -0.109996315907328 -145.720627549916 -33.9068466154287 118.836386091959
 720000000 -30.1823005344644 146.748782225469 -0.110211222026218 -147.77157083769 -0.11021122202622 -147.77157083769 -34.1495748012016 115.408749889803
 730000000 -30.48239790431 145.362967772131 -0.110431759815043 -149.822525842052 -0.110431759815046 -149.822525842052 -34.41188611857 111.910224749746
 740000000 -30.806929964961 144.047917110887 -0.110657744998482 -151.873490965552 -0.110657744998484 -151.873490965552 -34.6946022117547 108.331875010108
 750000000 -31.1573740699765 142.816535662885 -0.110889005215852 -153.924464757527 -0.11088900521585 -153.924464757527 -34.9985960856597 104.66317371685
 760000000 -31.5353522470317 141.68423779078 -0.111125379361865 -155.975445897601 -0.111125379361861 -155.975445897601 -35.3247812945965 100.891675272866
 770000000 -31.9426326512585 140.669601852777 -0.111366716922425 -158.026433181162 -0.111366716922425 -158.026433181162 -35.6740928873962 97.0026114641949
 780000000 -32.3811199711792 139.795221990261 -0.111612877317181 -160.077425506571 -0.111612877317184 -160.077425506571 -36.0474558717555 92.9783946455262
 790000000 -32.852825928408 139.088819605896 -0.111863729257458 -162.128421863903 -0.111863729257459 -162.128421863903 -36.4457348722234 88.7980110188713
 800000000 -33.3598049015053 138.584694562173 -0.112119150125769 -164.179421325006 -0.112119150125773 -164.179421325006 -36.8696555835235 84.4362890432484
 810000000 -33.9040294600749 138.325611741642 -0.112379025381058 -166.230423034745 -0.112379025381059 -166.230423034745 -37.3196841757595 79.8630366361433
 820000000 -34.4871635474031 138.365222080336 -0.112643247992505 -168.281426203263 -0.112643247992502 -168.281426203263 -37.7958445711977 75.0420627206327
 830000000 -35.1101631967565 138.771081407396 -0.112911717903237 -170.332430099147 -0.112911717903239 -170.332430099147 -38.2974452432331 69.9301461104497
 840000000 -35.7725909614739 139.628191867043 -0.113184341524881 -172.38343404339 -0.113184341524874 -172.38343404339 -38.8226774134993 64.4761088651113
 850000000 -36.4714675012497 141.042610450594 -0.113461031262669 -174.434437404037 -0.113461031262672 -174.434437404037 -39.368037948986 58.6203255633066
 860000000 -37.1994120565046 143.143770545557 -0.113741705070944 -176.48543959145 -0.113741705070935 -176.485439591449 -39.927530753553 52.2952991816567
 870000000 -37.9417999299197 146.0822843584 -0.114026286037871 -178.536440054105 -0.114026286037918 -178.536440054105 -40.4916283080961 45.4283948955446
 880000000 -38.6728714679004 150.016686372346 -0.114314701998384 179.412561725127 -0.114314701998384 179.412561725127 -41.04606539604 37.9484024905742
 890000000 -39.3515759226939 155.078569101695 -0.114606885174506 177.361566232306 -0.114606885174501 177.361566232305 -41.5707406022338 29.7980015193887
 900000000 -39.9199420973077 161.30607064499 -0.114902771840686 175.310573925355 -0.114902771840683 175.310573925355 -42.0393473675217 20.9536099838297
 910000000 -40.3093758060854 168.553781829931 -0.115202302013944 173.259585236693 -0.115202302013941 173.259585236693 -42.4207375009248 11.4510927168021
 920000000 -40.4593940621634 176.431496074382 -0.115505419166369 171.208600575563 -0.115505419166365 171.208600575563 -42.6830186930255 1.40948171699876
 930000000 -40.3431579968939 -175.644786320274 -0.115812069959188 169.157620330124 -0.115812069959189 169.157620330124 -42.8003494770471 -8.96208262707833
 940000000 -39.9812750892048 -168.273551614147 -0.11612220399669 167.106644869308 -0.116122203996693 167.106644869308 -42.7602615286472 -19.3881502090025
 950000000 -39.4310378762705 -161.877745113389 -0.116435773598703 165.055674544489 -0.116435773598706 165.055674544489 -42.5677399480434 -29.579940379465
 960000000 -38.7612434817889 -156.634241357597 -0.116752733590432 163.004709690972 -0.116752733590433 163.004709690972 -42.2435197896319 -39.2947835881161
 970000000 -38.0318604319812 -152.524550025892 -0.117073041108324 160.953750629329 -0.117073041108324 160.953750629329 -41.817693202405 -48.3740624007119
 980000000 -37.2861874484752 -149.425251081927 -0.117396655420788 158.902797666601 -0.11739665542079 158.902797666601 -41.3222850289079 -56.748406123069
 990000000 -36.551766247333 -147.178931742306 -0.117723537762752 156.851851097371 -0.117723537762749 156.851851097371 -40.785876999907 -64.4191551987723
 1000000000 -35.8444178777657 -145.632918601167 -0.118053651182929 154.800911204734 -0.118053651182929 154.800911204734 -40.2311557755357 -71.4320868807293
 1010000000 -35.1722470253492 -144.654782271492 -0.118386960402917 152.749978261174 -0.118386960402915 152.749978261174 -39.6746724031055 -77.8545499591419
 1020000000 -34.5386334456226 -144.135566200437 -0.118723431687126 150.699052529344 -0.118723431687126 150.699052529344 -39.1277263355454 -83.7598880511868
 1030000000 -33.9442105178329 -143.987833434181 -0.11906303272282 148.648134262783 -0.11906303272282 148.648134262783 -38.5975761406088 -89.2185827978943
 1040000000 -33.388094611249 -144.142124959347 -0.119405732509402 146.597223706553 -0.119405732509401 146.597223706553 -38.0885680352165 -94.294104200002
 1050000000 -32.8686218647568 -144.543369773926 -0.119751501256227 144.546321097823 -0.119751501256225 144.546321097823 -37.603039187076 -99.0415687731599
 1060000000 -32.3837787350215 -145.147785762313 -0.120100310288362 142.495426666396 -0.120100310288362 142.495426666397 -37.1419855110656 -103.50786982769
 1070000000 -31.93144756557 -145.920379769422 -0.120452131959582 140.444540635188 -0.120452131959582 140.444540635188 -36.7055331043336 -107.732470668338
 1080000000 -31.5095422004597 -146.832994283382 -0.120806939572035 138.393663220659 -0.120806939572033 138.393663220659 -36.2932616823743 -111.748418117292
 1090000000 -31.1160789582548 -147.862803260821 -0.121164707302155 136.342794633209 -0.121164707302157 136.342794633209 -35.9044222946363 -115.583356226558
 1100000000 -30.749210028735 -148.991159886492 -0.121525410132215 134.291935077544 -0.121525410132215 134.291935077544 -35.5380818006834 -119.260443917074
 1110000000 -30.407235367566 -150.202713880857 -0.12188902378714 132.241084752995 -0.121889023787141 132.241084752995 -35.19321752268 -122.799144633153
 1120000000 -30.088602606338 -151.484733156212 -0.122255524676143 130.190243853826 -0.122255524676143 130.190243853826 -34.8687783801791 -126.215887079908
 1130000000 -29.7919005905524 -152.826579894335 -0.122624889838841 128.139412569505 -0.122624889838841 128.139412569505 -34.5637236428216 -129.524609369542
 1140000000 -29.5158498320548 -154.219303417584 -0.122997096895473 126.088591084954 -0.122997096895472 126.088591084954 -34.277046822715 -132.737203228284
 1150000000 -29.2592917753409 -155.655321686122 -0.123372124000863 124.037779580784 -0.123372124000861 124.037779580784 -34.0077897567684 -135.86387502985
 1160000000 -29.0211779499034 -157.128170366933 -0.123749949801956 121.986978233501 -0.123749949801957 121.986978233501 -33.755050258944 -138.91343876442
 1170000000 -28.8005595884912 -158.632303709911 -0.124130553398486 119.936187215707 -0.124130553398486 119.936187215707 -33.5179856003864 -141.893553831883
 1180000000 -28.5965779999774 -160.162935383271 -0.124513914306681 117.885406696274 -0.124513914306681 117.885406696274 -33.2958133236278 -144.810918326183
 1190000000 -28.4084558154248 -161.715910320419 -0.124900012425672 115.834636840511 -0.124900012425672 115.834636840511 -33.0878103936987 -147.67142648617
 1200000000 -28.2354891287626 -163.287600782107 -0.125288828006464 113.783877810318 -0.125288828006464 113.783877810318 -32.893311351787 -150.480297298705
 1210000000 -28.0770405002028 -164.87482144031 -0.125680341623198 111.733129764326 -0.125680341623196 111.733129764326 -32.7117059110299 -153.242179849328
 1220000000 -27.9325327633943 -166.474759489631 -0.126074534146601 109.682392858027 -0.1260745341466 109.682392858027 -32.5424362824411 -155.961239891374
 1230000000 -27.8014435657236 -168.084916694195 -0.126471386719432 107.631667243895 -0.126471386719431 107.631667243895 -32.3849944172847 -158.641231204875
 1240000000 -27.6833005684682 -169.703060960617 -0.12687088073375 105.580953071501 -0.126870880733748 105.580953071501 -32.2389192841357 -161.285554600771
 1250000000 -27.577677235825 -171.327185546748 -0.127272997809886 103.530250487614 -0.127272997809888 103.530250487614 -32.103794253435 -163.897306857901
 1260000000 -27.4841891467277 -172.955474413039 -0.127677719777008 101.479559636299 -0.127677719777007 101.479559636299 -31.9792446321671 -166.479321430102
 1270000000 -27.4024907694098 -174.586272528682 -0.128085028655087 99.4288806590112 -0.128085028655086 99.4288806590112 -31.8649353714905 -169.034202403457
 1280000000 -27.3322726450578 -176.218060180474 -0.128494906638293 97.378213694674 -0.128494906638293 97.378213694674 -31.7605689573116 -171.56435289998
 1290000000 -27.2732589331297 -177.849430515272 -0.128907336079537 95.3275588797634 -0.128907336079537 95.3275588797634 -31.6658834857081 -174.071998898233
 1300000000 -27.2252052767552 -179.479069689093 -0.129322299476247 93.2769163483794 -0.129322299476247 93.2769163483794 -31.5806509202179 -176.559209261063
 1310000000 -27.1878969519795 178.894260893209 -0.129739779457174 91.2262862323155 -0.129739779457174 91.2262862323155 -31.5046755252848 -179.027912616605
 1320000000 -27.1611472693761 177.271740677511 -0.130159758770171 89.1756686611239 -0.130159758770172 89.1756686611239 -31.4377924688961 178.520088376969
 1330000000 -27.1447962008057 175.654504762125 -0.130582220270915 87.1250637621755 -0.130582220270914 87.1250637621755 -31.3798665871533 176.083104945293
 1340000000 -27.1387092077992 174.043657712958 -0.131007146912478 85.0744716607181 -0.131007146912478 85.0744716607181 -31.330791303932 173.659551927444
 1350000000 -27.1427762512607 172.440286664504 -0.13143452173565 83.0238924799295 -0.131434521735651 83.0238924799295 -31.2904876996199 171.247939018944
 1360000000 -27.1569109649544 170.84547395027 -0.131864327860045 80.9733263409683 -0.131864327860046 80.9733263409683 -31.2589037241174 168.84686327445
 1370000000 -27.1810499775706 169.260309486297 -0.132296548475822 78.9227733630223 -0.132296548475822 78.9227733630223 -31.2360135507026 166.455002655879
 1380000000 -27.2151523700788 167.685903118941 -0.132731166836087 76.8722336633525 -0.13273116683609 76.8722336633525 -31.2218170689967 164.07111044354
 1390000000 -27.2591992566198 166.123397142393 -0.133168166249838 74.8217073573369 -0.133168166249838 74.8217073573369 -31.2163395170685 161.69401035353
 1400000000 -27.3131934782794 164.573979192126 -0.133607530075493 72.7711945585103 -0.133607530075491 72.7711945585103 -31.2196312547353 159.322592225206
 1410000000 -27.3771593997855 163.038895727085 -0.134049241714859 70.7206953786024 -0.134049241714859 70.7206953786024 -31.2317676823133 156.955808158988
 1420000000 -27.4511427993576 161.519466326512 -0.134493284607639 68.6702099275745 -0.134493284607639 68.6702099275745 -31.2528493115402 154.592668997624
 1430000000 -27.5352108415908 160.017099046539 -0.134939642226323 66.6197383136537 -0.134939642226321 66.6197383136537 -31.2830019981431 152.232241053979
 1440000000 -27.6294521222084 158.53330710817 -0.135388298071502 64.5692806433655 -0.135388298071499 64.5692806433655 -31.3223773486496 149.873642995726
 1450000000 -27.7339767716655 157.069727222278 -0.135839235667535 62.518837021565 -0.135839235667536 62.518837021565 -31.3711533175971 147.516042802336
 1460000000 -27.8489166016516 155.62813990013 -0.136292438558622 60.4684075514664 -0.136292438558622 60.4684075514664 -31.4295350154253 145.158654712607
 1470000000 -27.9744252742418 154.210492150702 -0.136747890305113 58.4179923346716 -0.136747890305112 58.4179923346716 -31.4977557521308 142.80073608174
 1480000000 -28.1106784673656 152.818923030354 -0.137205574480214 56.3675914711965 -0.137205574480212 56.3675914711965 -31.5760783474279 140.441584065492
 1490000000 -28.2578740018055 151.455792587944 -0.137665474666898 54.3172050594971 -0.137665474666895 54.3172050594971 -31.6647967448861 138.080532045183
 1500000000 -28.4162318833559 150.12371484118 -0.138127574455108 52.2668331964942 -0.138127574455105 52.2668331964942 -31.7642379755572 135.716945700857
 1510000000 -28.5859941979955 148.825595530098 -0.138591857439225 50.216475977596 -0.138591857439228 50.216475977596 -31.8747645263785 133.350218630042
 1520000000 -28.7674247765575 147.564675522892 -0.139058307215742 48.1661334967217 -0.13905830721574 48.1661334967217 -31.9967771804808 130.97976739591
 1530000000 -28.9608085164826 146.34458089978 -0.139526907381108 46.1158058463224 -0.139526907381106 46.1158058463224 -32.1307184111655 128.605025869617
 1540000000 -29.1664502092252 145.169380912601 -0.139997641529873 44.0654931174018 -0.139997641529869 44.0654931174018 -32.2770764293702 126.225438706167
 1550000000 -29.3846726692635 144.043655210143 -0.140470493252909 42.0151953995357 -0.140470493252908 42.0151953995357 -32.4363900070706 123.84045375873
 1560000000 -29.6158138897116 142.972571926574 -0.140945446135863 39.9649127808919 -0.140945446135862 39.9649127808919 -32.6092542275072 121.449513190429
 1570000000 -29.8602228539384 141.961978441063 -0.141422483757765 37.9146453482476 -0.141422483757765 37.9146453482475 -32.7963273492898 119.05204298076
 1580000000 -30.1182535039837 141.018506807565 -0.141901589689758 35.8643931870072 -0.141901589689757 35.8643931870072 -32.9983390177429 116.647440440564
 1590000000 -30.3902561938992 140.14969598299 -0.142382747493997 33.8141563812194 -0.142382747493995 33.8141563812194 -33.2161001167083 114.235059236504
 1600000000 -30.6765657252451 139.364132976871 -0.14286594072267 31.7639350135936 -0.142865940722668 31.7639350135936 -33.450514632091 111.81419127185
 1610000000 -30.9774847550811 138.671614784305 -0.143351152917116 29.7137291655152 -0.143351152917115 29.7137291655152 -33.7025940012225 109.384044558145
 1620000000 -31.2932609628887 138.083332245435 -0.143838367607096 27.663538917061 -0.143838367607096 27.663538917061 -33.9734745588849 106.943715917209
 1630000000 -31.6240558391758 137.612075476824 -0.144327568310139 25.6133643470136 -0.144327568310141 25.6133643470136 -34.2644388746399 104.492156938592
 1640000000 -31.9699022953637 137.272457733694 -0.144818738531002 23.5632055328764 -0.144818738531003 23.5632055328764 -34.576942026154 102.028131027934
 1650000000 -32.33064748601 137.081149704588 -0.14531186176121 21.5130625508856 -0.145311861761208 21.5130625508856 -34.9126441973206 99.5501585320487
 1660000000 -32.7058763104449 137.057108143607 -0.145806921478691 19.4629354760253 -0.14580692147869 19.4629354760253 -35.2734514699845 97.0564456834942
 1670000000 -33.0948101297171 137.221769744896 -0.146303901147497 17.412824382039 -0.146303901147501 17.412824382039 -35.6615673571563 94.5447912587884
 1680000000 -33.4961745583411 137.599161050397 -0.146802784217581 15.3627293414424 -0.146802784217581 15.3627293414424 -36.0795586012512 92.0124620452118
 1690000000 -33.9080303097466 138.215845389598 -0.147303554124659 13.3126504255353 -0.14730355412466 13.3126504255353 -36.5304401864923 89.4560238867174
 1700000000 -34.3275629942295 139.10058624143 -0.14780619429013 11.2625877044138 -0.147806194290133 11.2625877044137 -37.0177866363564 86.8711082503544
 1710000000 -34.7508331780441 140.283553319273 -0.148310688121058 9.2125412469807 -0.14831068812106 9.21254124698065 -37.5458798894111 84.25208320024
 1720000000 -35.1724994181412 141.794840239827 -0.148817019010227 7.16251112095703 -0.148817019010224 7.16251112095708 -38.119909051359 81.5915792777179
 1730000000 -35.5855474056146 143.662022291337 -0.149325170336198 5.11249739289327 -0.149325170336203 5.11249739289327 -38.7462452873563 78.8797892405695
 1740000000 -35.9810898446851 145.906505267676 -0.149835125463511 3.0625001281779 -0.149835125463505 3.06250012817811 -39.4328281508586 76.1034045856749
 1750000000 -36.3483417381888 148.538577378208 -0.150346867742747 1.01251939105002 -0.150346867742748 1.01251939104982 -40.1897216219856 73.2439482513486
 1760000000 -36.6749110728409 151.551465660891 -0.150860380511106 -1.0374447553927 -0.150860380511091 -1.0374447553927 -41.029936458441 70.2750627109245
 1770000000 -36.9475457456976 154.915353351989 -0.151375647092058 -3.08739224918384 -0.15137564709206 -3.08739224918363 -41.9706848383676 67.1579046323814
 1780000000 -37.1534020939652 158.573091980823 -0.15189265079627 -5.13732302947912 -0.151892650796271 -5.13732302947912 -43.0353639783014 63.8329125079983
 1790000000 -37.2817229013257 162.439804218681 -0.152411374921621 -7.18723703654716 -0.152411374921623 -7.18723703654713 -44.2568219350896 60.2041486885357
 1800000000 -37.3255739182052 166.408098290646 -0.152931802753678 -9.23713421175987 -0.152931802753681 -9.23713421175984 -45.6829799840064 56.1071509399404
 1810000000 -37.2831206613361 170.358894169941 -0.15345391756606 -11.2870144975849 -0.153453917566062 -11.2870144975849 -47.386947055541 51.2362622160508