# Hz S DB R 50
!Touchstone multiport model file <C:\work\PySI\TestSignalIntegrity\OysterSimulation\ResampledSimbeor\SemiRigidCable2.s2p>
!Created on 22 Aug 18, at 17:55:39.
!Created with Simbeor THz 2018.01(64bit) of Simberian Inc. built on Jul 20 2018

!Output from MultiportParameters of Simbeor.
!Multiport parameters: DataOrigin=Simulation DataOriginName="Project(1).SemiRigidCable2_resampled.LNS"
!RESAMPLED_RCM: Max_RMS_Error=0.0160663; FrqLow=0; FrqHigh=4e+10; MaxTimeResolution=1.25e-11; PassivityState=1; ReciprocityState=1;
!RATIONAL COMPACTOR: Precision: Normal; Extract Delay: ON; Extrapolate to DC: ON; Extrapolate to Infinity: OFF; Enforce Passivity: ON; Enforce Reciprocity: ON; Band Limit Factor: 1; Auto-Adjust Config: OFF

!Uncomment the following lines with keywords in square brakets to support IBIS forum specification 2.0.
![Version] 2.0 !This line should be the first in file, preceeding the line starting with #.
![Number of Ports] 2
![Number of Frequencies] 8001
![Two-Port Data Order] 21_12
![Reference] 50 50

!!!!Multiport descriptor profile: InputCount=2 TotalPortCount=2
!DescriptorOutline={DescriptorType=SMatrix InputSpace=Terminal NormalizationType=CommonZo NormalizationCommonZo=50 Ohm OutputFormat=DBMagnitudeAngle}
!InputProfile={Name="IO1" IsTLineInput=False InputNumber=1 PortCount=1 FirstPortNumber=1 InputSpace=Terminal BlockType=SBlock NormalizationType=CommonZo Zo=50}
!InputProfile={Name="IO2" IsTLineInput=False InputNumber=2 PortCount=1 FirstPortNumber=2 InputSpace=Terminal BlockType=SBlock NormalizationType=CommonZo Zo=50}

!!!Global port number to input_name/local_port_number correspondence:
!Port 1 -> "IO1"/local_port_1 (terminal)
!Port 2 -> "IO2"/local_port_1 (terminal)
!!!!End of descriptor profile.

!Frequency Hz 20.0*log(|S[1,1]|) arg(S[1,1]) 20.0*log(|S[2,1]|) arg(S[2,1]) 20.0*log(|S[1,2]|) arg(S[1,2]) 20.0*log(|S[2,2]|) arg(S[2,2])
 0 -6153.05311137178 0 0.0338631603888995 0 0.0675948130276119 0 -48.164799306237 0
 10000000 -41.9888083682998 -178.310838501647 -0.0385657268774936 -2.05775268225326 -0.0385657268774956 -2.05775268225316 -61.1305069384725 -172.945078298284
 20000000 -41.9783393255062 -176.612312135807 -0.0387887016483765 -4.11515912754174 -0.0387887016483716 -4.11515912754184 -61.1654910160296 -165.467625570101
 30000000 -41.960103918212 -174.895758580826 -0.039129035816618 -6.17190567933068 -0.039129035816616 -6.17190567933063 -61.1688113113033 -157.219756515191
 40000000 -41.9329539038566 -173.153917354734 -0.0395404958011097 -8.2277492218405 -0.0395404958011097 -8.22774922184048 -61.0596482845215 -148.044378200477
 50000000 -41.8953492543382 -171.381614813589 -0.039961083449507 -10.2825631267642 -0.039961083449506 -10.2825631267642 -60.7423358076839 -138.12190173549
 60000000 -41.8454317100408 -169.57640850547 -0.0403185911447489 -12.3363876798727 -0.0403185911447489 -12.3363876798727 -60.1443728771922 -128.028360003171
 70000000 -41.7811253265826 -167.739143680281 -0.0405407963027528 -14.3894721653588 -0.0405407963027489 -14.3894721653588 -59.2566595200962 -118.555101269061
 80000000 -41.7002634642185 -165.874354382879 -0.0405703066469875 -16.4422863894514 -0.0405703066469913 -16.4422863894514 -58.1379556744745 -110.363355191614
 90000000 -41.600736183661 -163.990433107908 -0.040381328886045 -18.4954775252577 -0.0403813288860508 -18.4954775252577 -56.8792533934673 -103.763634440436
 100000000 -41.4806454935209 -162.099509389234 -0.0399926560041996 -20.5497624935422 -0.0399926560041976 -20.5497624935422 -55.5645698897453 -98.7448674539258
 110000000 -41.3384514582637 -160.217022190177 -0.0394703867735991 -22.6057766539594 -0.0394703867735982 -22.6057766539594 -54.2533812613509 -95.1213001375032
 120000000 -41.1730927532213 -158.361027376719 -0.0389172484270074 -24.6639294762755 -0.0389172484270074 -24.6639294762755 -52.9810787764544 -92.6564558846324
 130000000 -40.9840706893461 -156.551321903949 -0.0384516852665318 -26.7243222705703 -0.0384516852665308 -26.7243222705703 -51.7658021056551 -91.1274252449686
 140000000 -40.7714924289125 -154.80847535995 -0.0381847798689591 -28.7867539009249 -0.0381847798689601 -28.7867539009249 -50.615050830318 -90.3470388247961
 150000000 -40.5360735733546 -153.152848181637 -0.0382030580252255 -30.8507982221403 -0.0382030580252245 -30.8507982221403 -49.5303152058287 -90.1658953520662
 160000000 -40.2791023920732 -151.603665062492 -0.0385609765279195 -32.9159113593434 -0.0385609765279185 -32.9159113593434 -48.5099224783722 -90.4672114785247
 170000000 -40.0023698691181 -150.178208444251 -0.0392820632657919 -34.9815290327858 -0.0392820632657919 -34.9815290327858 -47.5506777840997 -91.1602531257215
 180000000 -39.7080727124704 -148.891191047425 -0.0403651236709917 -37.0471328659329 -0.0403651236709936 -37.0471328659329 -46.6487749408564 -92.174409095968
 190000000 -39.3986995909304 -147.754348588664 -0.0417919268887924 -39.1122834548246 -0.0417919268887933 -39.1122834548247 -45.8002857630169 -93.454415127057
 200000000 -39.0769124805949 -146.776265200881 -0.0435340778522496 -41.1766283912589 -0.0435340778522496 -41.1766283912589 -45.0014115572624 -94.9566818312138
 210000000 -38.7454343054495 -145.962413573368 -0.0455581454764305 -43.2398957066092 -0.0455581454764314 -43.2398957066092 -44.2486023157663 -96.6465272967535
 220000000 -38.406951429059 -145.315368525098 -0.0478290081741569 -45.3018811293671 -0.0478290081741617 -45.3018811293671 -43.5386034289153 -98.4961060730589
 230000000 -38.0640360215742 -144.835141036989 -0.0503117767461063 -47.3624343902473 -0.0503117767461053 -47.3624343902473 -42.8684636599791 -100.482859568484
 240000000 -37.7190898988905 -144.519579243944 -0.0529727374377505 -49.4214471809247 -0.0529727374377505 -49.4214471809247 -42.2355233340248 -102.588352323398
 250000000 -37.3743087531134 -144.364790229534 -0.0557796950560713 -51.4788436779885 -0.0557796950560674 -51.4788436779885 -41.6373933045595 -104.797392904165
 260000000 -37.0316639958346 -144.365547717396 -0.0587019927948361 -53.5345736358181 -0.058701992794837 -53.534573635818 -41.0719304975596 -107.097365029611
 270000000 -36.6928986485231 -144.515662652051 -0.0617103902201036 -55.5886076566811 -0.0617103902201027 -55.5886076566811 -40.537213129048 -109.477714645382
 280000000 -36.3595336172479 -144.808304139522 -0.0647769086560488 -57.640934133935 -0.0647769086560478 -57.640934133935 -40.0315171643951 -111.929553374824
 290000000 -36.0328810283425 -145.236266330621 -0.0678747037945385 -59.6915573857892 -0.0678747037945375 -59.6915573857892 -39.5532947324005 -114.445349431519
 300000000 -35.7140618590181 -145.792182433919 -0.0709779936359192 -61.7404965697417 -0.0709779936359153 -61.7404965697417 -39.1011547373412 -117.018684770158
 310000000 -35.404025714669 -146.468690456446 -0.074062050396331 -63.7877850510885 -0.074062050396332 -63.7877850510885 -38.673845662523 -119.64406280536
 320000000 -35.1035711857168 -147.258556985758 -0.0771032534773842 -65.8334699760884 -0.0771032534773852 -65.8334699760884 -38.2702404342586 -122.316755050926
 330000000 -34.8133657126752 -148.154765857476 -0.0800791940172997 -67.8776118664188 -0.0800791940173017 -67.8776118664188 -37.8893231607553 -125.032677959769
 340000000 -34.5339642826869 -149.150578333696 -0.0829688180479254 -69.9202841065285 -0.0829688180479254 -69.9202841065285 -37.5301775444448 -127.788293388663
 350000000 -34.2658265777607 -150.239570780853 -0.0857525937460045 -71.9615722410062 -0.0857525937460055 -71.9615722410062 -37.1919767706268 -130.580527692584
 360000000 -34.0093324074781 -151.415655012106 -0.0884126880458763 -74.0015730369112 -0.0884126880458763 -74.0015730369112 -36.8739746896084 -133.406705627143
 370000000 -33.764795403466 -152.673085596972 -0.0909331386046788 -76.0403932974352 -0.0909331386046808 -76.0403932974352 -36.5754981279122 -136.264496115646
 380000000 -33.5324750456057 -154.006457625856 -0.0933000085535644 -78.0781484390482 -0.0933000085535673 -78.0781484390482 -36.2959401835026 -139.151867599547
 390000000 -33.3125871446668 -155.410697693013 -0.0955015134600131 -80.1149608647424 -0.095501513460016 -80.1149608647424 -36.0347543785999 -142.067051194086
 400000000 -33.1053129342864 -156.881050244075 -0.0975281123134886 -82.1509581812394 -0.0975281123134905 -82.1509581812394 -35.7914495607975 -145.008510256674
 410000000 -32.9108069355407 -158.413060923796 -0.0993725569707763 -84.1862713181017 -0.0993725569707763 -84.1862713181017 -35.5655854585274 -147.974915273231
 420000000 -32.729203756332 -160.002558146982 -0.101029897193787 -86.2210326117404 -0.101029897193789 -86.2210326117404 -35.3567688104128 -150.965123199969
 430000000 -32.5606239800231 -161.64563378778 -0.10249744101799 -88.255373917664 -0.102497441017991 -88.255373917664 -35.1646499997969 -153.978160580947
 440000000 -32.4051792862924 -163.338623626418 -0.103774672554683 -90.2894248105167 -0.103774672554684 -90.2894248105167 -34.9889201358949 -157.013209906902
 450000000 -32.2629769343755 -165.078087994237 -0.104863131332426 -92.3233109242579 -0.104863131332424 -92.3233109242579 -34.8293085318003 -160.069598798146
 460000000 -32.1341237258748 -166.860792906563 -0.105766258834111 -94.3571524751419 -0.105766258834113 -94.3571524751419 -34.6855805370895 -163.146791689938
 470000000 -32.0187295522393 -168.683691857851 -0.10648921894191 -96.3910629989344 -0.10648921894191 -96.3910629989344 -34.5575356892554 -166.244383778365
 480000000 -31.9169106211385 -170.543908367028 -0.107038699557655 -98.425148321994 -0.107038699557655 -98.425148321994 -34.4450061537206 -169.362097052539
 490000000 -31.8287924467846 -172.438719295464 -0.107422702754516 -100.459505774333 -0.107422702754518 -100.459505774333 -34.3478554269245 -172.499778298036
 500000000 -31.7545126816846 -174.365538910732 -0.107650330499076 -102.494223642237 -0.107650330499076 -102.494223642237 -34.2659772809786 -175.657399009773
 510000000 -31.6942238617008 -176.321903631139 -0.107731572343574 -104.529380848994 -0.107731572343575 -104.529380848994 -34.1992949317189 -178.835057202371
 520000000 -31.6480961323686 -178.305457355811 -0.107677100616947 -106.565046845113 -0.107677100616945 -106.565046845113 -34.1477604147357 177.967018845747
 530000000 -31.6163200225222 179.686062740387 -0.107498077632014 -108.60128168415 -0.107498077632012 -108.60128168415 -34.1113541560711 174.748464829312
 540000000 -31.5991093312502 177.654840091283 -0.107205978359121 -110.638136256997 -0.107205978359122 -110.638136256997 -34.0900847257549 171.508772497924
 550000000 -31.5967041962912 175.602992470721 -0.106812430964176 -112.675652655916 -0.106812430964177 -112.675652655916 -34.0839887631391 168.247279390588
 560000000 -31.6093744163616 173.532585764367 -0.106329076628259 -114.71386463962 -0.106329076628259 -114.71386463962 -34.0931310629294 164.963155969016
 570000000 -31.6374231068206 171.445648006133 -0.105767449194506 -116.75279817192 -0.105767449194506 -116.75279817192 -34.1176048097588 161.655389824724
 580000000 -31.6811907780297 169.344183941511 -0.105138874451032 -118.792472008567 -0.10513887445103 -118.792472008567 -34.1575319467554 158.322766552223
 590000000 -31.7410599392648 167.230190428679 -0.10445438826428 -120.832898309717 -0.104454388264281 -120.832898309717 -34.2130636594988 154.963846782988
 600000000 -31.817460348923 165.105673051492 -0.103724672325898 -122.874083258524 -0.103724672325901 -122.874083258524 -34.2843809503476 151.576938758606
 610000000 -31.9108750551126 162.972664401684 -0.102960005957409 -124.91602766962 -0.102960005957412 -124.91602766962 -34.3716952686436 148.1600656818
 620000000 -32.0218474009718 160.833244597845 -0.102170232216368 -126.958727574459 -0.102170232216368 -126.958727574459 -34.4752491485054 144.710926915601
 630000000 -32.1509892082963 158.689564755885 -0.101364736447826 -129.002174773476 -0.101364736447824 -129.002174773476 -34.5953167862402 141.226851897711
 640000000 -32.2989904038347 156.54387432369 -0.100552435405988 -131.046357347797 -0.100552435405985 -131.046357347797 -34.7322044615343 137.704745391434
 650000000 -32.4666304188222 154.398553460909 -0.0997417751158392 -133.091260125649 -0.0997417751158411 -133.091260125649 -34.8862506672938 134.141022399168
 660000000 -32.6547917789317 152.256152011376 -0.0989407357353961 -135.136865100726 -0.0989407357354 -135.136865100726 -35.0578257577829 130.531530710903
 670000000 -32.8644764160009 150.119437121935 -0.0981568418017608 -137.1831518015 -0.0981568418017608 -137.1831518015 -35.2473308471829 126.871458642025
 680000000 -33.0968253845882 147.991452267362 -0.0973971763860596 -139.230097611937 -0.0973971763860576 -139.230097611937 -35.4551955818321 123.1552250284
 690000000 -33.3531428697131 145.875591437842 -0.0966683978335505 -141.27767804519 -0.0966683978335486 -141.27767804519 -35.6818742566294 119.376347997252
 700000000 -33.6349256471826 143.77569367075 -0.0959767579185192 -143.325866972767 -0.0959767579185183 -143.325866972767 -35.9278395316137 115.527288440494
 710000000 -33.943899533885 141.696165175952 -0.0953281203932163 -145.374636812347 -0.0953281203932163 -145.374636812347 -36.1935727039282 111.599263535161
 720000000 -34.2820648849023 139.642139348786 -0.0947279790531647 -147.423958677901 -0.0947279790531657 -147.423958677901 -36.479549069274 107.582025189916
 730000000 -34.6517539201995 137.61968952708 -0.0941814745751178 -149.473802496172 -0.0941814745751207 -149.473802496172 -36.7862163197185 103.463598154747
 740000000 -35.0557036900232 135.636116309659 -0.0936934095082932 -151.524137093789 -0.0936934095082922 -151.524137093789 -37.113963111436 99.2299730882971
 750000000 -35.4971499566452 133.70034209297 -0.0932682609146752 -153.574930259477 -0.0932682609146732 -153.574930259477 -37.4630738227689 94.8647518022004
 760000000 -35.9799493958272 131.823462737864 -0.0929101902606505 -155.626148785912 -0.0929101902606524 -155.626148785912 -37.8336640285046 90.3487463414753
 770000000 -36.5087406316953 130.019534425655 -0.0926230502616936 -157.677758495844 -0.0926230502616946 -157.677758495844 -38.2255892737462 85.6595424391212
 780000000 -37.089159208119 128.306720928985 -0.0924103884759194 -159.729724257123 -0.0924103884759194 -159.729724257123 -38.6383173437122 80.7710543216009
 790000000 -37.72812839569 126.709007943616 -0.0922754475327411 -161.782009991245 -0.0922754475327392 -161.782009991245 -39.0707515922274 75.6531266773847
 800000000 -38.4342577271873 125.258836389446 -0.0922211619710396 -163.834578680027 -0.0922211619710406 -163.834578680027 -39.5209906551315 70.2712878146871
 810000000 -39.218395404944 124.001275371664 -0.0922501517492828 -165.88739237491 -0.0922501517492809 -165.88739237491 -39.986009589171 64.5868344586661
 820000000 -40.0943992015331 123.000873228137 -0.0923647125783454 -167.940412213335 -0.0923647125783454 -167.940412213335 -40.4612523625058 58.5575413488995
 830000000 -41.0802072449049 122.35336690482 -0.0925668033176024 -169.993598446431 -0.0925668033175995 -169.993598446431 -40.9401415406521 52.1394368597745
 840000000 -42.1992745981088 122.206624710589 -0.0928580307660651 -172.046910482099 -0.0928580307660681 -172.046910482099 -41.4135470077799 45.2902399615487
 850000000 -43.4822658046774 122.800027435566 -0.0932396322725573 -174.100306947252 -0.0932396322725573 -174.100306947252 -41.8693219290525 37.9751210645484
 860000000 -44.9680376539925 124.542416959931 -0.0937124566809166 -176.153745772631 -0.0937124566809205 -176.153745772631 -42.2921136539749 30.1752311114619
 870000000 -46.6992602586776 128.172510185129 -0.0942769442162495 -178.207184303161 -0.0942769442162495 -178.207184303161 -42.663764467907 21.8986401266382
 880000000 -48.6926357199098 135.080536398601 -0.0949331060031919 179.739420563785 -0.0949331060031294 179.739420563785 -42.9646504985383 13.1917156939316
 890000000 -50.8073338579564 147.748129250363 -0.0956805039837531 177.686112210478 -0.0956805039837531 177.686112210478 -43.1761296615659 4.14687816807792
 900000000 -52.3697987975768 168.75311685515 -0.0965182320690109 175.632934100405 -0.0965182320690099 175.632934100405 -43.2837873279448 -5.0985166185883
 910000000 -52.2169863267615 -165.791345178928 -0.0974448994037613 173.579929549268 -0.0974448994037593 173.579929549268 -43.2805333111555 -14.3756390719691
 920000000 -50.495482955353 -146.074523161485 -0.098458616654609 171.52714146645 -0.098458616654608 171.52714146645 -43.1682943920868 -23.5081321194394
 930000000 -48.3777249019472 -134.469378083903 -0.0995569862306803 169.474612068989 -0.0995569862306774 169.474612068989 -42.9575046878321 -32.3387743046823
 940000000 -46.4248355258789 -128.150877949154 -0.100737097319415 167.422382571288 -0.100737097319416 167.422382571288 -42.6646413160399 -40.7494087641393
 950000000 -44.7358484933887 -124.819392343547 -0.101995526558759 165.370492854896 -0.101995526558757 165.370492854896 -42.308909447052 -48.6687518309945
 960000000 -43.2854620830085 -123.214821942545 -0.103328345070849 163.318981123805 -0.103328345070848 163.318981123805 -41.9092717224474 -56.0689338881317
 970000000 -42.0305923076424 -122.665369949973 -0.104731132450991 161.267883551744 -0.10473113245099 161.267883551744 -41.4824913556545 -62.9555087255932
 980000000 -40.9334592764177 -122.79618797781 -0.106198998139831 159.217233928798 -0.106198998139833 159.217233928798 -41.0422492491503 -69.3558974839661
 990000000 -39.9644747161599 -123.386019425092 -0.107726610410408 157.167063315383 -0.10772661041041 157.167063315383 -40.599050005593 -75.3093990420691
 1000000000 -39.1010014103547 -124.297263003295 -0.1093082329803 155.117399712046 -0.109308232980302 155.117399712046 -40.1605663031268 -80.859919427324
 1010000000 -38.3256736646427 -125.440368728998 -0.110937769020475 153.068267753689 -0.110937769020475 153.068267753689 -39.7321518276103 -86.0513287072676
 1020000000 -37.6250180481335 -126.75475332006 -0.112608812086156 151.019688436664 -0.112608812086153 151.019688436664 -39.3173628627145 -90.9248507581363
 1030000000 -36.9884344178022 -128.198051768527 -0.114314703251567 148.971678886653 -0.114314703251567 148.971678886653 -38.9184141961327 -95.5178326599629
 1040000000 -36.4074638051785 -129.739787956681 -0.116048593501942 146.924252174443 -0.116048593501944 146.924252174443 -38.536546717313 -99.8633637853418
 1050000000 -35.8752635612989 -131.357497851578 -0.117803510233948 144.877417185516 -0.117803510233945 144.877417185516 -38.1723098336287 -103.99037273254
 1060000000 -35.3862281615637 -133.034271339104 -0.119572426550143 142.831178547965 -0.119572426550143 142.831178547965 -37.8257719020292 -107.923963860292
 1070000000 -34.9357120326136 -134.757145406306 -0.121348331913854 140.785536621623 -0.121348331913854 140.785536621623 -37.4966739086151 -111.685851000813
 1080000000 -34.5198243054029 -136.51602520684 -0.123124302664433 138.740487549477 -0.123124302664432 138.740487549477 -37.1845401939333 -115.294808624157
 1090000000 -34.1352748262389 -138.302942093482 -0.124893570883071 136.696023370643 -0.124893570883071 136.696023370643 -36.8887574820314 -118.767099295932
 1100000000 -33.7792571546625 -140.11153239141 -0.126649590146849 134.65213219232 -0.12664959014685 134.65213219232 -36.6086308996703 -122.116858848072
 1110000000 -33.4493585973335 -141.936664160694 -0.128386096811636 132.608798416483 -0.128386096811639 132.608798416483 -36.3434234711732 -125.356433268469
 1120000000 -33.1434902579998 -143.774165253018 -0.130097165615692 130.566003015517 -0.130097165615691 130.566003015517 -36.0923838338088 -128.496667914774
 1130000000 -32.8598320898558 -145.620622004201 -0.131777258589021 128.523723849788 -0.131777258589021 128.523723849788 -35.854765600431 -131.547152799039
 1140000000 -32.5967893248843 -147.473228013914 -0.133421266476657 126.481936019134 -0.133421266476656 126.481936019134 -35.629840822839 -134.516428907882
 1150000000 -32.3529576267797 -149.329668978417 -0.135024542126594 124.440612239679 -0.135024542126597 124.440612239679 -35.4169093016044 -137.412160721026
 1160000000 -32.1270950027514 -151.188033824674 -0.136582925542953 122.399723237071 -0.136582925542951 122.399723237071 -35.2153049780929 -140.241279790274
 1170000000 -31.9180990031882 -153.04674526141 -0.138092760550166 120.359238147303 -0.138092760550169 120.359238147303 -35.024400278839 -143.010103728975
 1180000000 -31.7249880960563 -154.904504815486 -0.139550903244493 118.319124916638 -0.139550903244493 118.319124916638 -34.8436090212212 -145.724434394921
 1190000000 -31.5468863652244 -156.760248772472 -0.140954722616093 116.279350692777 -0.140954722616092 116.279350692777 -34.6723883032007 -148.389638504976
 1200000000 -31.383010876151 -158.613112388391 -0.142302093901223 114.239882200255 -0.142302093901223 114.239882200255 -34.5102396675482 -151.010713432446
 1210000000 -31.2326611976275 -160.462400414293 -0.143591385365697 112.200686094066 -0.143591385365697 112.200686094066 -34.3567097373534 -153.592340519841
 1220000000 -31.0952106779919 -162.307562461416 -0.144821439325225 110.161729286596 -0.144821439325225 110.161729286596 -34.2113904538977 -156.138927889289
 1230000000 -30.9700991577709 -164.148172089753 -0.145991548275394 108.122979244102 -0.145991548275396 108.122979244102 -34.0739190024947 -158.654644443653
 1240000000 -30.8568268650257 -165.983908764674 -0.147101427035847 106.084404250127 -0.147101427035849 106.084404250127 -33.9439774811362 -161.143446514698
 1250000000 -30.7549492894909 -167.81454202182 -0.148151181812682 104.045973634314 -0.148151181812681 104.045973634314 -33.8212923467879 -163.609098420496
 1260000000 -30.6640728706907 -169.639917327931 -0.149141277054645 102.007657966089 -0.149141277054647 102.007657966089 -33.7056336619681 -166.055188034344
 1270000000 -30.5838513660172 -171.45994323755 -0.150072500927315 99.9694292135817 -0.150072500927317 99.9694292135817 -33.5968141577778 -168.485138333377
 1280000000 -30.5139827894411 -173.274579531421 -0.150945930160133 97.9312608688999 -0.150945930160135 97.9312608688999 -33.4946881270154 -170.902215780846
 1290000000 -30.4542068313551 -175.083826088859 -0.151762894939684 95.8931280415079 -0.151762894939682 95.8931280415079 -33.3991501613348 -173.309536295863
 1300000000 -30.4043026863029 -176.88771229739 -0.152524944433049 93.855007521931 -0.152524944433045 93.855007521931 -33.310133748402 -175.71006947472
 1310000000 -30.3640872287394 -178.68628684233 -0.153233813432615 91.8168778183659 -0.153233813432611 91.8168778183659 -33.2276097480709 -178.10664164548
 1320000000 -30.3334134881943 179.520392251301 -0.153891390521569 89.7787191689929 -0.153891390521567 89.7787191689929 -33.1515847699656 179.498061739147
 1330000000 -30.312169384784 177.732267430231 -0.154499688070553 87.7405135329082 -0.154499688070553 87.7405135329082 -33.0820994781929 177.101493937883
 1340000000 -30.3002766942071 175.949291368298 -0.155060814293446 85.7022445626049 -0.155060814293444 85.7022445626049 -33.0192268517684 174.701244621079
 1350000000 -30.2976902186222 174.171436747035 -0.15557694751484 83.6638975608778 -0.15557694751484 83.6638975608778 -32.9630704315791 172.295037133705
 1360000000 -30.3043971461809 172.398706138963 -0.156050312735057 81.6254594248992 -0.156050312735057 81.6254594248992 -32.9137625861283 169.880725078379
 1370000000 -30.3204165878224 170.631142072711 -0.156483160521036 79.5869185800423 -0.156483160521034 79.5869185800423 -32.8714628289381 167.456288028575
 1380000000 -30.3457992852465 168.868837365455 -0.156877748202873 77.5482649058259 -0.15687774820287 77.5482649058259 -32.8363562202903 165.019826228571
 1390000000 -30.3806274889476 167.111945820238 -0.157236323316157 75.5094896561273 -0.157236323316156 75.5094896561273 -32.8086518851268 162.56955417587
 1400000000 -30.4250150098685 165.360693403213 -0.157561109198927 73.470585375573 -0.157561109198927 73.470585375573 -32.7885816774761 160.103793013277
 1410000000 -30.4791074527673 163.615390039392 -0.157854292628439 71.4315458137784 -0.157854292628439 71.4315458137784 -32.7763990199265 157.620961680564
 1420000000 -30.54308264376 161.876442196228 -0.158118013365849 69.3923658388791 -0.158118013365849 69.3923658388791 -32.7723779445883 155.119566789861
 1430000000 -30.6171512688557 160.144366462813 -0.158354355466259 67.3530413515669 -0.15835435546626 67.3530413515669 -32.7768123598603 152.59819119387
 1440000000 -30.7015577446836 158.419804380655 -0.158565340205193 65.3135692006418 -0.158565340205191 65.3135692006418 -32.790015565292 150.055481211474
 1450000000 -30.7965813470486 156.703538841671 -0.158752920471099 63.2739471008963 -0.158752920471101 63.2739471008963 -32.8123200351037 147.490132461394
 1460000000 -30.9025376275368 154.996512442901 -0.158918976475032 61.2341735539783 -0.158918976475033 61.2341735539783 -32.8440774895781 144.900874230364
 1470000000 -31.0197801531487 153.299848279281 -0.159065312632839 59.1942477727222 -0.159065312632837 59.1942477727222 -32.8856592727081 142.28645226771
 1480000000 -31.1487026088435 151.614873770215 -0.159193655481648 57.154169609306 -0.15919365548165 57.154169609306 -32.9374570542485 139.645609852026
 1490000000 -31.2897413079336 149.943148259267 -0.159305652500084 55.1139394874732 -0.159305652500084 55.1139394874732 -32.9998838747321 136.977066916641
 1500000000 -31.4433781603142 148.286495307446 -0.159402871710572 53.0735583389609 -0.159402871710569 53.0735583389609 -33.0733755530453 134.279496946699
 1510000000 -31.6101441532719 146.647040830727 -0.159486801951161 51.0330275441884 -0.159486801951161 51.0330275441884 -33.1583924778823 131.551501268957
 1520000000 -31.7906234036159 145.027258527094 -0.159558853714242 48.9923488771983 -0.15955885371424 48.9923488771983 -33.2554218066226 128.791580242035
 1530000000 -31.985457842183 143.430024417905 -0.159620360458811 46.9515244547788 -0.159620360458812 46.9515244547788 -33.3649800978486 125.998100714113
 1540000000 -32.1953525909916 141.8586828207 -0.15967258031255 44.9105566896564 -0.159672580312548 44.9105566896564 -33.4876164065397 123.169258939799
 1550000000 -32.4210820868873 140.3171267133 -0.15971669808882 42.869448247614 -0.159716698088822 42.869448247614 -33.6239158735324 120.303037927798
 1560000000 -32.6634969896156 138.809896293364 -0.159753827552486 40.8282020083609 -0.159753827552484 40.8282020083609 -33.7745038424942 117.397157913011
 1570000000 -32.9235318802095 137.34230065305 -0.159785013876237 38.7868210299674 -0.159785013876234 38.7868210299674 -33.9400505373523 114.449018292332
 1580000000 -33.2022136970181 135.920568969721 -0.159811236236631 36.7453085166605 -0.15981123623663 36.7453085166605 -34.1212763292034 111.455628909269
 1590000000 -33.5006707545003 134.552039589415 -0.159833410506034 34.703667789777 -0.159833410506034 34.703667789777 -34.3189576116371 108.413527985245
 1600000000 -33.8201420162133 133.245398023115 -0.159852392002483 32.6619022616601 -0.159852392002483 32.6619022616602 -34.5339332830394 105.318683232511
 1610000000 -34.1619860028968 132.010978417111 -0.159868978265564 30.6200154122951 -0.159868978265565 30.620015412295 -34.7671117973279 102.166371685746
 1620000000 -34.5276882343494 130.861147795304 -0.15988391183106 28.5780107684769 -0.159883911831058 28.5780107684769 -35.0194786805558 98.9510324789105
 1630000000 -34.9188653067594 129.810798668644 -0.15989788298181 26.5358918853147 -0.159897882981812 26.5358918853147 -35.2921043036255 95.6660850661175
 1640000000 -35.3372623907219 128.877983864953 -0.159911532456153 24.4936623298795 -0.159911532456155 24.4936623298795 -35.5861515250792 92.3037031033013
 1650000000 -35.7847387595078 128.084737972551 -0.159925454098777 22.4513256668166 -0.159925454098777 22.4513256668166 -35.9028825310766 88.854531194066
 1660000000 -36.2632323576166 127.458142536321 -0.159940197441911 20.4088854457493 -0.159940197441911 20.4088854457493 -36.2436637352715 85.3073277400845
 1670000000 -36.7746884646654 127.031705844603 -0.159956270207453 18.3663451903114 -0.159956270207452 18.3663451903115 -36.6099668510019 81.6485119725723
 1680000000 -37.3209276897163 126.84713855613 -0.15997414072286 16.3237083886595 -0.159974140722857 16.3237083886595 -37.0033630363109 77.8615866398251
 1690000000 -37.9034124951641 126.956602237796 -0.159994240245679 14.2809784853208 -0.159994240245684 14.2809784853207 -37.4255050529611 73.926399683237
 1700000000 -38.5228458434164 127.425461988746 -0.160016965193253 12.2381588742469 -0.160016965193252 12.2381588742469 -37.8780892112026 69.818198886653
 1710000000 -39.1784965756701 128.33542588206 -0.16004267927547 10.1952528929533 -0.160042679275471 10.1952528929533 -38.3627837508784 65.5064243941955
 1720000000 -39.8670926867336 129.787575469552 -0.160071715529803 8.15226381762941 -0.160071715529806 8.15226381762938 -38.8811020752101 60.953179274023
 1730000000 -40.5810683743203 131.90394127456 -0.160104378258718 6.10919485912048 -0.160104378258715 6.10919485912048 -39.4341861749593 56.1113279641102
 1740000000 -41.3059500326939 134.824580503833 -0.160140944870385 4.06604915968496 -0.160140944870378 4.06604915968501 -40.0224453407775 50.9222190048373
 1750000000 -42.0168841656483 138.694281247344 -0.160181667624345 2.02282979044093 -0.160181667624329 2.02282979044093 -40.6449655647874 45.3131598249388
 1760000000 -42.6750902693351 143.629890387973 -0.160226775284336 -0.0204602505735584 -0.160226775284305 -0.0204602505736101 -41.2985662312771 39.1950828358142
 1770000000 -43.2267399767128 149.660472493443 -0.160276474680448 -2.06381803980214 -0.160276474680434 -2.06381803980234 -41.9763439069725 32.4615051193351
 1780000000 -43.6088341863312 156.648602731386 -0.160330952184668 -4.10724072909248 -0.160330952184667 -4.10724072909248 -42.6655506976721 24.9911479152423
 1790000000 -43.7656903615581 164.237778787843 -0.160390375100994 -6.15072554620374 -0.160390375100996 -6.15072554620369 -43.3448210650073 16.658614016134
 1800000000 -43.6712462342691 171.895430102613 -0.160454892975288 -8.19426979494617 -0.160454892975289 -8.1942697949462 -43.9813146454747 7.35972691946814