# Hz S DB R 50
!Touchstone multiport model file <C:\work\PySI\TestSignalIntegrity\OysterSimulation\ResampledSimbeor\TeledyneRelayClosed.s2p>
!Created on 22 Aug 18, at 17:55:42.
!Created with Simbeor THz 2018.01(64bit) of Simberian Inc. built on Jul 20 2018

!Output from MultiportParameters of Simbeor.
!Multiport parameters: DataOrigin=Simulation DataOriginName="Project(1).TeledyneRelayClosed_resampled.LNS"
!RESAMPLED_RCM: Max_RMS_Error=0.0156116; FrqLow=0; FrqHigh=4e+10; MaxTimeResolution=1.25e-11; PassivityState=1; ReciprocityState=1; 
!RATIONAL COMPACTOR: Precision: Normal; Extract Delay: ON; Extrapolate to DC: ON; Extrapolate to Infinity: OFF; Enforce Passivity: ON; Enforce Reciprocity: ON; Band Limit Factor: 1; Auto-Adjust Config: OFF

!Uncomment the following lines with keywords in square brakets to support IBIS forum specification 2.0.
![Version] 2.0 !This line should be the first in file, preceeding the line starting with #.
![Number of Ports] 2
![Number of Frequencies] 8001
![Two-Port Data Order] 21_12
![Reference] 50 50

!!!!Multiport descriptor profile: InputCount=2 TotalPortCount=2
!DescriptorOutline={DescriptorType=SMatrix InputSpace=Terminal NormalizationType=CommonZo NormalizationCommonZo=50 Ohm OutputFormat=DBMagnitudeAngle}
!InputProfile={Name="IO1" IsTLineInput=False InputNumber=1 PortCount=1 FirstPortNumber=1 InputSpace=Terminal BlockType=SBlock NormalizationType=CommonZo Zo=50}
!InputProfile={Name="IO2" IsTLineInput=False InputNumber=2 PortCount=1 FirstPortNumber=2 InputSpace=Terminal BlockType=SBlock NormalizationType=CommonZo Zo=50}

!!!Global port number to input_name/local_port_number correspondence:
!Port 1 -> "IO1"/local_port_1 (terminal)
!Port 2 -> "IO2"/local_port_1 (terminal)
!!!!End of descriptor profile.

!Frequency Hz 20.0*log(|S[1,1]|) arg(S[1,1]) 20.0*log(|S[2,1]|) arg(S[2,1]) 20.0*log(|S[1,2]|) arg(S[1,2]) 20.0*log(|S[2,2]|) arg(S[2,2])
 0 -59.0149407543624 0 -0.0116381997396436 0 -0.0116381997396436 0 -61.1804333140512 0
 10000000 -59.0034075922342 1.44695420618885 -0.0116567166427755 -0.448784032234273 -0.0116567166428064 -0.448784032233867 -61.7791869650605 -12.4901702014772
 20000000 -58.9689728482574 2.87965384162005 -0.0117122396492834 -0.897559463422222 -0.0117122396492834 -0.897559463422426 -63.7029069237347 -24.220082737725
 30000000 -58.912122616334 4.28427211716515 -0.0118046857305465 -1.34631771047897 -0.0118046857305484 -1.34631771047897 -67.5973308821864 -34.5278570722809
 40000000 -58.8336407636228 5.64780648433774 -0.0119339167572923 -1.79505022617497 -0.0119339167572942 -1.79505022617476 -77.1590730705126 -41.3650874533129
 50000000 -58.7345722702977 6.95841664332063 -0.0120997398774771 -2.24374851691 -0.0120997398774752 -2.24374851690979 -75.9601662570264 122.850473602848
 60000000 -58.6161769708797 8.20568447431491 -0.0123019080425616 -2.69240416030404 -0.0123019080425635 -2.69240416030404 -66.7386465475506 117.912531817126
 70000000 -58.4798777669519 9.38078559343464 -0.0125401206804715 -3.14100882254224 -0.0125401206804744 -3.14100882254214 -62.4096480927555 112.051631574561
 80000000 -58.3272073907552 10.4765716834051 -0.0128140245121798 -3.58955427541267 -0.0128140245121808 -3.58955427541272 -59.5962994903433 106.640538168205
 90000000 -58.1597573221509 11.4875708367996 -0.0131232145087774 -4.03803241299176 -0.0131232145087764 -4.03803241299171 -57.5337960721621 101.720166668813
 100000000 -57.9791316559345 12.409918983892 -0.0134672349847969 -4.48643526790387 -0.0134672349847988 -4.48643526790383 -55.9194191786841 97.2286251645129
 110000000 -57.7869077685181 13.2412386398842 -0.0138455808235876 -4.93475502711795 -0.0138455808235876 -4.93475502711795 -54.601906092213 93.097371657908
 120000000 -57.5846047026716 13.9804819728031 -0.0142576988293323 -5.38298404721891 -0.0142576988293314 -5.38298404721891 -53.4949275113811 89.2668385906837
 130000000 -57.3736593951444 14.6277540233968 -0.0147029892004166 -5.83111486911099 -0.0147029892004156 -5.83111486911104 -52.5447240840581 85.6882013977684
 140000000 -57.1554102729501 15.1841295373594 -0.0151808071179825 -6.27914023210443 -0.0151808071179815 -6.27914023210453 -51.7156636045096 82.322139036556
 150000000 -56.9310873547677 15.6514739006132 -0.015690464443368 -6.72705308734357 -0.0156904644433709 -6.72705308734357 -50.9829823991579 79.1370930717574
 160000000 -56.7018077925688 16.0322756362481 -0.0162312315174605 -7.17484661053517 -0.0162312315174605 -7.1748466105352 -50.3288106846615 76.1076703784689
 170000000 -56.4685757362639 16.329495173009 -0.0168023390547243 -7.62251421394358 -0.0168023390547224 -7.62251421394366 -49.7398499515419 73.213328211069
 180000000 -56.2322854570301 16.5464323116887 -0.0174029801246188 -8.07004955761517 -0.0174029801246188 -8.07004955761509 -49.205944435591 70.4373342721235
 190000000 -55.9937267819152 16.686613064537 -0.0180323122123245 -8.51744655980649 -0.0180323122123245 -8.51744655980652 -48.7191652370216 67.7659571125614
 200000000 -55.7535920401481 16.753695303803 -0.0186894593509302 -8.964699406589 -0.0186894593509302 -8.96469940658895 -48.2732024878483 65.187838994053
 210000000 -55.5124838766049 16.7513918516262 -0.0193735143167408 -9.41180256060691 -0.0193735143167389 -9.41180256060696 -47.8629499749437 62.6935099575237
 220000000 -55.2709234344768 16.6834091923736 -0.0200835408794076 -9.85875076897352 -0.0200835408794038 -9.85875076897354 -47.4842140308669 60.2750101681967
 230000000 -55.0293585385573 16.5533997989041 -0.0208185760983728 -10.3055390702879 -0.0208185760983661 -10.305539070288 -47.1335049698854 57.9255951065582
 240000000 -54.7881716192334 16.36492605323 -0.0215776326570173 -10.7521628007652 -0.0215776326570182 -10.7521628007652 -46.8078847253941 55.6395042461668
 250000000 -54.5476872049067 16.1214338496459 -0.022359701226024 -11.1986175994708 -0.022359701226023 -11.1986175994709 -46.5048535931064 53.4117785595739
 260000000 -54.3081788784575 15.8262341429736 -0.0231637528474459 -11.6448994126585 -0.0231637528474449 -11.6448994126586 -46.222264715741 51.2381157552689
 270000000 -54.0698756446113 15.4824909086537 -0.0239887413308465 -12.0910044972126 -0.0239887413308494 -12.0910044972126 -45.9582585910926 49.1147548251621
 280000000 -53.8329676918598 15.0932141970977 -0.0248336056533685 -12.5369294231986 -0.0248336056533676 -12.5369294231987 -45.7112122604039 47.0383834862479
 290000000 -53.5976115585314 14.6612571676073 -0.0256972723553141 -12.9826710755322 -0.0256972723553141 -12.9826710755322 -45.4796994136657 45.0060636032471
 300000000 -53.3639347296296 14.1893161755827 -0.0265786579233728 -13.4282266547772 -0.0265786579233747 -13.4282266547772 -45.2624587192566 43.0151708093213
 310000000 -53.1320397014364 13.6799331558735 -0.0274766711535755 -13.8735936770895 -0.0274766711535755 -13.8735936770895 -45.0583684237558 41.063345395998
 320000000 -52.9020075566701 13.1354996876939 -0.0283902154864786 -14.3187699733242 -0.0283902154864805 -14.3187699733242 -44.8664257850616 39.1484521915646
 330000000 -52.6739010951485 12.5582622506094 -0.0293181913073293 -14.7637536873282 -0.0293181913073322 -14.7637536873282 -44.6857302694932 37.2685476423485
 340000000 -52.4477675648661 11.9503282839887 -0.0302594982042795 -15.2085432734442 -0.0302594982042824 -15.2085432734441 -44.5154697082456 35.4218526912819
 350000000 -52.2236410366394 11.3136727469184 -0.0312130371779696 -15.6531374932501 -0.0312130371779706 -15.6531374932501 -44.3549088014544 33.6067303416949
 360000000 -52.0015444629374 10.6501449449567 -0.0321777127964323 -16.0975354115679 -0.0321777127964333 -16.0975354115679 -44.2033795003208 31.8216670222612
 370000000 -51.781491458338 9.96147544614628 -0.0331524352892901 -16.5417363917705 -0.0331524352892911 -16.5417363917705 -44.0602729036566 30.0652570471755
 380000000 -51.5634878356463 9.2492829537316 -0.0341361225759831 -16.9857400904214 -0.0341361225759841 -16.9857400904214 -43.9250323848393 28.3361896053549
 390000000 -51.3475329283937 8.51508103793113 -0.0351277022229486 -17.4295464512856 -0.0351277022229476 -17.4295464512856 -43.7971477256616 26.6332378227072
 400000000 -51.1336207270308 7.7602846584612 -0.0361261133252754 -17.8731556987449 -0.0361261133252754 -17.8731556987449 -43.6761500797472 24.9552495292925
 410000000 -50.9217408531109 6.98621642991166 -0.037130308308592 -18.3165683306601 -0.037130308308593 -18.3165683306601 -43.5616076239869 23.3011394324932
 420000000 -50.7118793929126 6.19411259998154 -0.0381392546476982 -18.759785110718 -0.0381392546476992 -18.759785110718 -43.4531217841285 21.6698824533297
 430000000 -50.5040196092019 5.3851287234035 -0.0391519364986545 -19.2028070603042 -0.0391519364986535 -19.2028070603042 -43.3503239423883 20.0605080277459
 440000000 -50.2981425476625 4.56034502385536 -0.0401673562416062 -19.6456354499441 -0.0401673562416043 -19.645635449944 -43.2528725520778 18.4720952107017
 450000000 -50.0942275523112 3.72077144346061 -0.0411845359320537 -20.088271790352 -0.0411845359320566 -20.088271790352 -43.1604505978018 16.9037684500841
 460000000 -49.8922527023745 2.86735238534328 -0.0422025186588422 -20.5307178231328 -0.0422025186588422 -20.5307178231328 -43.0727633506027 15.3546939212616
 470000000 -49.6921951814868 2.00097115769474 -0.043220369807348 -20.9729755111757 -0.0432203698073461 -20.9729755111757 -42.9895363761294 13.8240763320705
 480000000 -49.4940315886097 1.12245413122836 -0.0442371782270035 -21.4150470287828 -0.0442371782269996 -21.4150470287828 -42.9105137609125 12.3111561241106
 490000000 -49.2977381988227 0.232574622702609 -0.0452520573026437 -21.8569347515747 -0.0452520573026467 -21.8569347515747 -42.8354565275313 10.8152070085722
 500000000 -49.103291181028 -0.667943480883243 -0.0462641459295951 -22.2986412462118 -0.046264145929598 -22.2986412462118 -42.7641412140632 9.33553378587882
 510000000 -48.910666778672 -1.57842234306175 -0.0472726093926045 -22.7401692599727 -0.0472726093926045 -22.7401692599727 -42.6963585970579 7.8714704065717
 520000000 -48.7198414587317 -2.49822702887361 -0.0482766401496085 -23.1815217102275 -0.0482766401496114 -23.1815217102275 -42.6319125403653 6.42237823832134
 530000000 -48.5307920335125 -3.42676257157224 -0.0492754585210137 -23.6227016738446 -0.0492754585210146 -23.6227016738446 -42.5706189547679 4.98764450958786
 540000000 -48.3434957591855 -4.36347124087994 -0.0502683132861246 -24.0637123765672 -0.0502683132861265 -24.0637123765672 -42.5123048555117 3.56668090543074
 550000000 -48.1579304144285 -5.30782999940646 -0.0512544821881769 -24.5045571823939 -0.051254482188174 -24.504557182394 -42.4568075066269 2.15892229480912
 560000000 -47.9740743620812 -6.25934813411484 -0.0522332723501052 -24.945239582998 -0.0522332723501042 -24.945239582998 -42.4039736424502 0.763825572188891
 570000000 -47.7919065963375 -7.21756505071587 -0.0532040206032258 -25.3857631872166 -0.0532040206032268 -25.3857631872166 -42.3536587580218 -0.619131401108092
 580000000 -47.611406777619 -8.18204821963607 -0.0541660937313028 -25.8261317106413 -0.0541660937313028 -25.8261317106413 -42.3057264611134 -1.99045076814495
 590000000 -47.4325552569929 -9.15239126235647 -0.0551188886326921 -26.2663489653367 -0.0551188886326902 -26.2663489653367 -42.2600478795548 -3.35061557037526
 600000000 -47.255333091733 -10.1282121685141 -0.0560618324036282 -26.706418849716 -0.0560618324036262 -26.706418849716 -42.2165011183068 -4.70009057343868
 610000000 -47.0797220534057 -11.1091516340175 -0.0569943823455154 -27.1463453385968 -0.0569943823455164 -27.1463453385968 -42.1749707613999 -6.03932303203495
 620000000 -46.9057046296413 -12.0948715117208 -0.057916025899656 -27.5861324734614 -0.0579160258996589 -27.5861324734613 -42.1353474144228 -7.36874340042448
 630000000 -46.7332640206329 -13.0850533663653 -0.0588262805126323 -28.0257843529417 -0.0588262805126332 -28.0257843529417 -42.0975272837557 -8.68876599391366
 640000000 -46.5623841312037 -14.0793971264183 -0.0597246934360109 -28.4653051235496 -0.0597246934360119 -28.4653051235495 -42.0614117891522 -9.9997896061249
 650000000 -46.39304955922 -15.077619825882 -0.060610841463747 -28.9046989706677 -0.060610841463746 -28.9046989706677 -42.0269072066656 -11.3021980861003
 660000000 -46.2252455809581 -16.0794544296244 -0.0614843306109805 -29.3439701098194 -0.0614843306109795 -29.3439701098194 -41.9939243392314 -12.5963608787771
 670000000 -46.0589581339981 -17.0846487363758 -0.0623447957379686 -29.7831227782289 -0.0623447957379706 -29.7831227782289 -41.962378212491 -13.8826335319753
 680000000 -45.8941737980962 -18.0929643539353 -0.0631919001227481 -30.2221612266842 -0.06319190012275 -30.2221612266842 -41.9321877937183 -15.1613581725316
 690000000 -45.7308797744435 -19.1041757415638 -0.0640253349862641 -30.6610897117144 -0.0640253349862641 -30.6610897117144 -41.9032757319005 -16.4328639541017
 700000000 -45.5690638636512 -20.1180693149115 -0.064844818973636 -31.0999124880875 -0.064844818973636 -31.0999124880875 -41.8755681172382 -17.6974674786552
 710000000 -45.4087144427424 -21.1344426092433 -0.065650097595267 -31.5386338016377 -0.0656500975952699 -31.5386338016377 -41.8489942584872 -18.9554731936209
 720000000 -45.2498204414182 -22.153103497027 -0.0664409426313572 -31.9772578824252 -0.0664409426313543 -31.9772578824252 -41.8234864767287 -20.2071737664001
 730000000 -45.0923713177861 -23.1738694562162 -0.067217151503317 -32.4157889382347 -0.067217151503315 -32.4157889382347 -41.7989799142814 -21.4528504377933
 740000000 -44.9363570337394 -24.196566885935 -0.0679785466157837 -32.854231148412 -0.0679785466157818 -32.854231148412 -41.7754123575842 -22.6927733557477
 750000000 -44.7817680301416 -25.2210304664335 -0.0687249746723113 -33.2925886580422 -0.0687249746723152 -33.2925886580422 -41.7527240730029 -23.9272018907356
 760000000 -44.6285952019292 -26.2471025604791 -0.0694563059683779 -33.7308655724669 -0.0694563059683798 -33.7308655724669 -41.7308576545866 -25.1563849339364
 770000000 -44.4768298732543 -27.274632653572 -0.0701724336646114 -34.1690659521404 -0.0701724336646104 -34.1690659521404 -41.7097578829081 -26.3805611793877
 780000000 -44.3264637727477 -28.303476830518 -0.0708732730435655 -34.6071938078214 -0.0708732730435655 -34.6071938078214 -41.6893715941814 -27.5999593910568
 790000000 -44.1774890089811 -29.3334972861475 -0.0715587607528492 -35.0452530960952 -0.0715587607528482 -35.0452530960952 -41.6696475589303 -28.814798655885
 800000000 -44.0298980461958 -30.3645618680763 -0.0722288540376281 -35.4832477152246 -0.0722288540376291 -35.4832477152246 -41.6505363695378 -30.0252886236927
 810000000 -43.8836836803394 -31.3965436495846 -0.072883529964995 -35.9211815013206 -0.0728835299649921 -35.9211815013206 -41.631990336065 -31.2316297347705
 820000000 -43.7388390154694 -32.4293205308376 -0.0735227846430143 -36.359058224828 -0.0735227846430143 -36.359058224828 -41.6139633897776 -32.4340134360687
 830000000 -43.5953574405475 -33.4627748668103 -0.074146632436827 -36.7968815873192 -0.074146632436828 -36.7968815873192 -41.596410993863 -33.6326223867019
 840000000 -43.4532326066653 -34.4967931203261 -0.0747551051840334 -37.2346552185866 -0.0747551051840314 -37.2346552185866 -41.5792900608645 -34.8276306535546
 850000000 -43.3124584047247 -35.5312655388274 -0.0753482514116947 -37.672382674027 -0.0753482514116937 -37.672382674027 -41.5625588763945 -36.0192038977271
 860000000 -43.1730289435851 -36.5660858535651 -0.0759261355569239 -38.1100674323077 -0.0759261355569239 -38.1100674323077 -41.5461770287168 -37.2074995524981
 870000000 -43.0349385287117 -37.6011509998516 -0.0764888371929028 -38.547712893306 -0.0764888371929037 -38.547712893306 -41.5301053438353 -38.3926669934961
 880000000 -42.8981816413304 -38.636360857414 -0.0770364502622671 -38.9853223763117 -0.0770364502622671 -38.9853223763117 -41.514305825727 -39.5748477017387
 890000000 -42.7627529180995 -39.6716180095394 -0.0775690823192992 -39.4228991184825 -0.0775690823192992 -39.4228991184825 -41.4987416014106 -40.7541754201471
 900000000 -42.62864713132 -40.706827520187 -0.0780868537825613 -39.8604462735435 -0.0780868537825613 -39.8604462735435 -41.483376870543 -41.9307763042129
 910000000 -42.4958591696824 -41.7418967280195 -0.0785898971993585 -40.297966910718 -0.0785898971993536 -40.297966910718 -41.4681768592635 -43.1047690673462
 920000000 -42.3643840195699 -42.7767350564648 -0.0790783565230978 -40.7354640138813 -0.0790783565230988 -40.7354640138813 -41.4531077780318 -44.276265121524
 930000000 -42.2342167469142 -43.8112538390006 -0.0795523864049607 -41.1729404809259 -0.0795523864049587 -41.1729404809259 -41.4381367832031 -45.4453687138022
 940000000 -42.105352479622 -44.8453661588407 -0.0800121515005986 -41.6103991233278 -0.0800121515006015 -41.6103991233279 -41.4232319421193 -46.61217705923
 950000000 -41.977786390568 -45.8789867022691 -0.0804578257929496 -42.0478426659029 -0.0804578257929486 -42.0478426659028 -41.4083622014941 -47.7767804706853
 960000000 -41.8515136811693 -46.9120316249394 -0.0808895919318663 -42.4852737467432 -0.0808895919318644 -42.4852737467433 -41.3934973588889 -48.9392624861591
 970000000 -41.7265295655409 -47.9444184304347 -0.0813076405912608 -42.9226949173239 -0.0813076405912617 -42.9226949173239 -41.3786080370829 -50.0996999940061
 980000000 -41.6028292552391 -48.9760658604662 -0.0817121698443428 -43.3601086427677 -0.0817121698443438 -43.3601086427677 -41.3636656611549 -51.2581633565722
 990000000 -41.4804079445994 -50.0068937960756 -0.0821033845573949 -43.7975173022601 -0.0821033845573939 -43.7975173022601 -41.3486424381 -52.4147165327202
 1000000000 -41.3592607966691 -51.0368231692786 -0.0824814958025963 -44.2349231896032 -0.0824814958025953 -44.2349231896033 -41.3335113388105 -53.569417199679
 1010000000 -41.2393829297458 -52.0657758845837 -0.0828467202899982 -44.6723285138995 -0.0828467202899982 -44.6723285138995 -41.3182460822652 -54.722316874605
 1020000000 -41.1207694045173 -53.0936747498421 -0.0831992798190782 -45.1097354003556 -0.0831992798190802 -45.1097354003556 -41.3028211217652 -55.8734610362854
 1030000000 -41.0034152118148 -54.1204434159105 -0.0835394007499583 -45.5471458911976 -0.0835394007499564 -45.5471458911976 -41.2872116330746 -57.0228892473645
 1040000000 -40.8873152609765 -55.1460063246555 -0.0838673134942455 -45.9845619466881 -0.0838673134942455 -45.9845619466881 -41.2713935043159 -58.1706352774189
 1050000000 -40.7724643688277 -56.170288664782 -0.0841832520257683 -46.4219854462374 -0.0841832520257683 -46.4219854462374 -41.2553433274822 -59.3167272272215
 1060000000 -40.6588572492794 -57.193216335053 -0.0844874534108783 -46.8594181895994 -0.0844874534108803 -46.8594181895994 -41.2390383914363 -60.4611876545313
 1070000000 -40.5464885035459 -58.2147159144392 -0.0847801573584385 -47.2968618981456 -0.0847801573584366 -47.2968618981456 -41.2224566762593 -61.6040337016294
 1080000000 -40.4353526109839 -59.2347146387759 -0.0850616057892389 -47.7343182162079 -0.085061605789234 -47.7343182162079 -41.2055768488231 -62.74527722492
 1090000000 -40.3254439205533 -60.253140383492 -0.085332042424633 -48.1717887124844 -0.0853320424246339 -48.1717887124844 -41.1883782594671 -63.8849249267819
 1100000000 -40.2167566428999 -61.2699216520172 -0.0855917123942385 -48.6092748815003 -0.0855917123942365 -48.6092748815003 -41.1708409396538 -65.0229784898585
 1110000000 -40.1092848430589 -62.2849875694603 -0.0858408618623464 -49.0467781451169 -0.0858408618623464 -49.0467781451169 -41.1529456004897 -66.1594347140159
 1120000000 -40.0030224337769 -63.2982678812003 -0.086079737672684 -49.4842998540835 -0.086079737672683 -49.4842998540835 -41.134673631993 -67.2942856560341
 1130000000 -39.8979631694512 -64.3096929559748 -0.086308587011378 -49.9218412896251 -0.086308587011381 -49.9218412896251 -41.1160071030027 -68.4275187721918
 1140000000 -39.7941006406813 -65.3191937931353 -0.0865276570875063 -50.3594036650599 -0.0865276570875053 -50.3594036650599 -41.0969287616199 -69.5591170638155
 1150000000 -39.6914282694304 -66.3267020337241 -0.0867371948309631 -50.7969881274428 -0.0867371948309612 -50.7969881274427 -41.0774220360683 -70.6890592258208
 1160000000 -39.5899393047899 -67.332149974992 -0.0869374466072899 -51.2345957592275 -0.0869374466072899 -51.2345957592275 -41.0574710358909 -71.8173197982743
 1170000000 -39.4896268193393 -68.3354705880606 -0.0871286579488761 -51.6722275799448 -0.0871286579488732 -51.6722275799449 -41.0370605533602 -72.9438693209814
 1180000000 -39.3904837060987 -69.3365975384079 -0.0873110733021379 -52.1098845478901 -0.0873110733021408 -52.1098845478901 -41.0161760650321 -74.0686744910357
 1190000000 -39.2925026760596 -70.3354652088239 -0.0874849357903903 -52.5475675618179 -0.0874849357903884 -52.5475675618179 -40.9948037333318 -75.191698323229
 1200000000 -39.1956762562887 -71.3320087246028 -0.087650486991551 -52.9852774626381 -0.08765048699155 -52.9852774626381 -40.9729304080956 -76.3129003132966
 1210000000 -39.0999967885939 -72.326163980606 -0.0878079667306627 -53.4230150351112 -0.0878079667306627 -53.4230150351112 -40.9505436279855 -77.4322366037622
 1220000000 -39.005456428738 -73.3178676699781 -0.0879576128863443 -53.8607810095384 -0.0879576128863443 -53.8607810095384 -40.9276316216885 -78.5496601523035
 1230000000 -38.9120471461907 -74.3070573142014 -0.0880996612109863 -54.2985760634434 -0.0880996612109843 -54.2985760634434 -40.9041833088337 -79.6651209024102
 1240000000 -38.819760724404 -75.2936712942608 -0.0882343451639708 -54.7364008232436 -0.0882343451639728 -54.7364008232436 -40.8801883005523 -80.7785659561041
 1250000000 -38.7285887615964 -76.2776488826362 -0.0883618957576399 -55.1742558659072 -0.0883618957576428 -55.1742558659072 -40.8556368996156 -81.8899397485293
 1260000000 -38.6385226720308 -77.2589302759181 -0.0884825414152941 -55.6121417205949 -0.088482541415298 -55.6121417205949 -40.8305201000892 -82.99918422409
 1270000000 -38.5495536877705 -78.2374566277881 -0.0885965078409751 -56.050058870282 -0.0885965078409731 -56.050058870282 -40.8048295864441 -84.1062390139097
 1280000000 -38.4616728608938 -79.213170082171 -0.0887040179003748 -56.4880077533611 -0.0887040179003738 -56.4880077533611 -40.7785577320796 -85.2110416142421
 1290000000 -38.3748710661523 -80.1860138063419 -0.0888052915125001 -56.9259887652219 -0.0888052915124972 -56.9259887652219 -40.7516975972036 -86.3135275655894
 1300000000 -38.289139004051 -81.1559320237887 -0.088900545551524 -57.3640022598072 -0.0889005455515249 -57.3640022598072 -40.7242429260348 -87.4136306321137
 1310000000 -38.2044672043348 -82.1228700466512 -0.0889899937585784 -57.8020485511439 -0.0889899937585775 -57.8020485511439 -40.6961881432904 -88.5112829810437
 1320000000 -38.1208460298577 -83.0867743075775 -0.0890738466627048 -58.2401279148458 -0.0890738466627048 -58.2401279148458 -40.6675283499245 -89.6064153617021
 1330000000 -38.0382656808157 -84.0475923908161 -0.0891523115108533 -58.6782405895905 -0.0891523115108533 -58.6782405895905 -40.6382593180967 -90.6989572837776
 1340000000 -37.9567161993237 -85.0052730624045 -0.0892255922063021 -59.1163867785654 -0.089225592206303 -59.1163867785654 -40.6083774853511 -91.7888371944681
 1350000000 -37.8761874743129 -85.9597662993157 -0.0892938892551052 -59.5545666508853 -0.0892938892551052 -59.5545666508853 -40.5778799479899 -92.8759826541364
 1360000000 -37.796669246729 -86.9110233174472 -0.089357399720276 -59.9927803429789 -0.0893573997202779 -59.9927803429789 -40.5467644536324 -93.9603205100758
 1370000000 -37.7181511150075 -87.8589965983079 -0.0894163171830908 -60.4310279599435 -0.0894163171830898 -60.4310279599435 -40.5150293929567 -95.0417770680279
 1380000000 -37.6406225408071 -88.803639914332 -0.0894708317113235 -60.8693095768696 -0.0894708317113244 -60.8693095768696 -40.4826737906273 -96.1202782610638
 1390000000 -37.5640728549742 -89.7449083527085 -0.0895211298340171 -61.3076252401317 -0.089521129834022 -61.3076252401317 -40.4496972954128 -97.1957498154904
 1400000000 -37.4884912637227 -90.682758337638 -0.0895673945221949 -61.7459749686481 -0.0895673945221949 -61.7459749686481 -40.4161001695061 -98.268117413398
 1410000000 -37.4138668550013 -91.6171476509655 -0.0896098051755572 -62.1843587551075 -0.0896098051755572 -62.1843587551075 -40.3818832770645 -99.337306851506
 1420000000 -37.3401886050304 -92.5480354511122 -0.0896485376144004 -62.6227765671628 -0.0896485376143975 -62.6227765671628 -40.3470480719853 -100.403244196016
 1430000000 -37.2674453849852 -93.4753822902556 -0.0896837640768054 -63.0612283485932 -0.0896837640768073 -63.0612283485932 -40.3115965849517 -101.465855933094
 1440000000 -37.1956259678036 -94.3991501297166 -0.0897156532204988 -63.4997140204324 -0.0897156532204949 -63.4997140204324 -40.2755314097641 -102.525069114731
 1450000000 -37.1247190350992 -95.3193023535283 -0.0897443701291971 -63.9382334820654 -0.0897443701291961 -63.9382334820654 -40.2388556890029 -103.580811499677
 1460000000 -37.0547131841571 -96.2358037801532 -0.0897700763231847 -64.3767866122924 -0.0897700763231847 -64.3767866122924 -40.2015730990457 -104.633011689207
 1470000000 -36.9855969349937 -97.1486206723466 -0.0897929297737808 -64.8153732703606 -0.0897929297737779 -64.8153732703606 -40.1636878344891 -105.681599257455
 1480000000 -36.9173587374611 -98.0577207451301 -0.0898130849213743 -65.2539932969647 -0.0898130849213762 -65.2539932969647 -40.1252045920054 -106.726504876126
 1490000000 -36.8499869783745 -98.9630731719264 -0.089830692696926 -65.6926465152154 -0.0898306926969319 -65.6926465152154 -40.0861285536867 -107.76766043337
 1500000000 -36.7834699886482 -99.8646485888099 -0.089845900546563 -66.1313327315774 -0.0898459005465621 -66.1313327315774 -40.0464653699187 -108.804999146676
 1510000000 -36.7177960504203 -100.762419096929 -0.0898588524590143 -66.570051736776 -0.0898588524590133 -66.570051736776 -40.0062211418275 -109.838455669609
 1520000000 -36.6529534041471 -101.656358263106 -0.0898696889958149 -67.0088033066744 -0.0898696889958129 -67.0088033066744 -39.9654024033559 -110.867966192316
 1530000000 -36.5889302556562 -102.546441118632 -0.0898785473238261 -67.4475872031203 -0.0898785473238261 -67.4475872031203 -39.9240161030109 -111.893468535652
 1540000000 -36.5257147831368 -103.432644156329 -0.089885561250174 -67.8864031747648 -0.0898855612501759 -67.8864031747648 -39.8820695853391 -112.914902238911
 1550000000 -36.4632951440569 -104.314945325861 -0.0898908612590607 -68.3252509578504 -0.0898908612590665 -68.3252509578504 -39.8395705721767 -113.932208641078
 1560000000 -36.4016594819913 -105.193324027403 -0.0898945745505531 -68.7641302769734 -0.0898945745505492 -68.7641302769734 -39.7965271437253 -114.94533095561
 1570000000 -36.3407959333476 -106.067761103663 -0.0898968250810246 -69.2030408458168 -0.0898968250810236 -69.2030408458168 -39.7529477195023 -115.954214338746
 1580000000 -36.2806926339782 -106.938238830343 -0.0898977336051234 -69.6419823678572 -0.0898977336051205 -69.6419823678572 -39.7088410392224 -116.958805951345
 1590000000 -36.221337725667 -107.804740905071 -0.0898974177191035 -70.0809545370451 -0.0898974177191015 -70.0809545370451 -39.6642161436492 -117.959055014353
 1600000000 -36.1627193624796 -108.66725243489 -0.0898959919053719 -70.5199570384595 -0.0898959919053719 -70.5199570384595 -39.6190823554705 -118.954912857937
 1610000000 -36.1048257169663 -109.525759922345 -0.0898935675780722 -70.9589895489377 -0.0898935675780722 -70.9589895489377 -39.5734492602461 -119.946332964377
 1620000000 -36.0476449862127 -110.380251250237 -0.0898902531296582 -71.3980517376794 -0.0898902531296601 -71.3980517376794 -39.5273266874648 -120.93327100484
 1630000000 -35.9911653977247 -111.230715665107 -0.089886153978276 -71.8371432668287 -0.089886153978278 -71.8371432668287 -39.4807246917624 -121.915684870168
 1640000000 -35.9353752151428 -112.077143759544 -0.0898813726157549 -72.2762637920312 -0.0898813726157578 -72.2762637920312 -39.4336535343376 -122.893534695811
 1650000000 -35.8802627437822 -112.919527453332 -0.0898760086562702 -72.7154129629696 -0.0898760086562702 -72.7154129629696 -39.3861236646034 -123.866782881079
 1660000000 -35.825816335987 -113.757859973561 -0.0898701588854703 -73.1545904238766 -0.0898701588854674 -73.1545904238766 -39.3381457021185 -124.835394102885
 1670000000 -35.7720243962966 -114.592135833742 -0.0898639173098644 -73.5937958140264 -0.0898639173098585 -73.5937958140264 -39.2897304188234 -125.79933532415
 1680000000 -35.7188753864221 -115.422350812005 -0.0898573752066847 -74.0330287682063 -0.0898573752066847 -74.0330287682063 -39.2408887216222 -126.758575797107
 1690000000 -35.6663578300248 -116.248501928433 -0.0898506211737828 -74.472288917167 -0.0898506211737867 -74.472288917167 -39.1916316353363 -127.71308706166
 1700000000 -35.6144603172968 -117.070587421641 -0.0898437411796722 -74.9115758880539 -0.0898437411796741 -74.9115758880539 -39.1419702860578 -128.662842939061
 1710000000 -35.5631715093404 -117.888606724623 -0.0898368186136731 -75.3508893048195 -0.0898368186136721 -75.3508893048195 -39.0919158849274 -129.607819521106
 1720000000 -35.5124801423448 -118.702560439969 -0.0898299343359311 -75.790228788617 -0.0898299343359282 -75.790228788617 -39.0414797123638 -130.547995155059
 1730000000 -35.4623750315596 -119.512450314503 -0.089823166727426 -76.2295939581769 -0.089823166727426 -76.2295939581769 -38.9906731027563 -131.483350424583
 1740000000 -35.4128450750638 -120.318279213411 -0.0898165917397382 -76.6689844301656 -0.0898165917397411 -76.6689844301656 -38.9395074296467 -132.413868126864
 1750000000 -35.3638792573303 -121.12005109393 -0.0898102829446669 -77.1083998195276 -0.0898102829446688 -77.1083998195276 -38.8879940914112 -133.339533246202
 1760000000 -35.3154666525893 -121.917770978647 -0.0898043115835226 -77.5478397398117 -0.0898043115835187 -77.5478397398117 -38.8361444974553 -134.260332924271
 1770000000 -35.2675964279852 -122.711444928487 -0.0897987466161084 -77.9873038034817 -0.0897987466161075 -77.9873038034817 -38.7839700549373 -135.176256427321