# Hz S DB R 50
!Touchstone multiport model file <C:\work\PySI\TestSignalIntegrity\OysterSimulation\ResampledSimbeor\Adapter.s2p>
!Created on 22 Aug 18, at 17:55:24.
!Created with Simbeor THz 2018.01(64bit) of Simberian Inc. built on Jul 20 2018

!Output from MultiportParameters of Simbeor.
!Multiport parameters: DataOrigin=Simulation DataOriginName="Project(1).Adapter_resampled.LNS"
!RESAMPLED_RCM: Max_RMS_Error=0.00317277; FrqLow=0; FrqHigh=4e+10; MaxTimeResolution=1.25e-11; PassivityState=1; ReciprocityState=1; DataSource="P®°n"
!RATIONAL COMPACTOR: Precision: Normal; Extract Delay: ON; Extrapolate to DC: ON; Extrapolate to Infinity: OFF; Enforce Passivity: ON; Enforce Reciprocity: ON; Band Limit Factor: 1; Auto-Adjust Config: OFF

!Uncomment the following lines with keywords in square brakets to support IBIS forum specification 2.0.
![Version] 2.0 !This line should be the first in file, preceeding the line starting with #.
![Number of Ports] 2
![Number of Frequencies] 8001
![Two-Port Data Order] 21_12
![Reference] 50 50

!!!!Multiport descriptor profile: InputCount=2 TotalPortCount=2
!DescriptorOutline={DescriptorType=SMatrix InputSpace=Terminal NormalizationType=CommonZo NormalizationCommonZo=50 Ohm OutputFormat=DBMagnitudeAngle}
!InputProfile={Name="IO1" IsTLineInput=False InputNumber=1 PortCount=1 FirstPortNumber=1 InputSpace=Terminal BlockType=SBlock NormalizationType=CommonZo Zo=50}
!InputProfile={Name="IO2" IsTLineInput=False InputNumber=2 PortCount=1 FirstPortNumber=2 InputSpace=Terminal BlockType=SBlock NormalizationType=CommonZo Zo=50}

!!!Global port number to input_name/local_port_number correspondence:
!Port 1 -> "IO1"/local_port_1 (terminal)
!Port 2 -> "IO2"/local_port_1 (terminal)
!!!!End of descriptor profile.

!Frequency Hz 20.0*log(|S[1,1]|) arg(S[1,1]) 20.0*log(|S[2,1]|) arg(S[2,1]) 20.0*log(|S[1,2]|) arg(S[1,2]) 20.0*log(|S[2,2]|) arg(S[2,2])
 0 -68.6971862717999 0 -0.00458628724565464 0 -0.00458628724565464 0 -63.7850538045469 0
 10000000 -68.6958092093593 -2.29902464679081 -0.00459255695792461 -0.199346106674163 -0.00459255695798733 -0.199346106672535 -63.7828001811375 0.993777162762505
 20000000 -68.6916799105468 -4.59729359409555 -0.00461131131831137 -0.398685545656996 -0.00461131131832584 -0.398685545657812 -63.7760465898286 1.98616398940337
 30000000 -68.6848040511511 -6.89405278650084 -0.00464238720169442 -0.598011746530913 -0.00464238720170889 -0.598011746529285 -63.764814801245 2.97577894694909
 40000000 -68.6751910617475 -9.18855147387816 -0.00468551667923928 -0.797318330442091 -0.00468551667923735 -0.797318330442498 -63.7491408437792 3.9612579975579
 50000000 -68.6628540918288 -11.4800438088997 -0.0047403327718206 -0.996599198639274 -0.00474033277182832 -0.996599198638664 -63.7290746289025 4.94126298302637
 60000000 -68.6478099554395 -13.7677904858166 -0.00480637718134803 -1.19584861270101 -0.0048063771813432 -1.19584861270141 -63.7046794367926 5.91448962941361
 70000000 -68.6300790645851 -16.0510602616451 -0.00488310970021326 -1.39506126438518 -0.00488310970021133 -1.39506126438518 -63.6760312742127 6.87967502553158
 80000000 -68.6096853468062 -18.3291314999954 -0.00496991894869 -1.59423233347443 -0.00496991894869289 -1.59423233347443 -63.6432181180369 7.83560449624702
 90000000 -68.5866561500753 -20.6012936338894 -0.00506613405600667 -1.79335753260211 -0.00506613405600957 -1.79335753260211 -63.6063390599864 8.78111775583793
 100000000 -68.561022135531 -22.8668485686905 -0.00517103689132217 -1.99243313855331 -0.00517103689132024 -1.99243313855311 -63.5655033691053 9.71511431392329
 110000000 -68.5328171578488 -25.1251120320731 -0.0052838744589681 -2.19145601013491 -0.00528387445896617 -2.19145601013521 -63.520829490116 10.636558053598
 120000000 -68.502078134942 -27.37541484377 -0.00540387109911506 -2.39042359316522 -0.00540387109911313 -2.39042359316522 -63.4724439954912 11.544480976354
 130000000 -68.4688449080816 -29.6171041097583 -0.00553024017647862 -2.58933391356549 -0.00553024017647766 -2.58933391356539 -63.4204805091477 12.4379860971797
 140000000 -68.4331600926698 -31.8495443382848 -0.00566219498953506 -2.78818555987046 -0.00566219498953506 -2.78818555987036 -63.3650786192571 13.3162495003871
 150000000 -68.3950689213998 -34.0721184686113 -0.00579895869143542 -2.98697765668726 -0.00579895869143446 -2.98697765668726 -63.3063827964185 14.1785215783049
 160000000 -68.3546190811448 -36.2842288063125 -0.00593977307119941 -3.18570983077068 -0.00593977307119941 -3.18570983077068 -63.2445413316286 15.0241275054591
 170000000 -68.3118605432061 -38.4852978791102 -0.00608390610266208 -3.38438217142841 -0.00608390610266594 -3.3843821714282 -63.1797053079684 15.8524669815941
 180000000 -68.2668453904772 -40.6747691848802 -0.00623065822152843 -3.58299518692121 -0.00623065822152746 -3.58299518692111 -63.1120276167651 16.66301332026
 190000000 -68.2196276401512 -42.8521078575545 -0.00637936733743382 -3.78154975842656 -0.00637936733743189 -3.78154975842656 -63.0416620281484 17.4553119380543
 200000000 -68.1702630646256 -45.0168012336018 -0.0065294126275902 -3.98004709298341 -0.00652941262758441 -3.98004709298352 -62.9687623233166 18.2289783255497
 210000000 -68.1188090113073 -47.1683593253294 -0.00668021718922405 -4.17848867665209 -0.00668021718922115 -4.17848867665214 -62.893481494337 18.9836955671257
 220000000 -68.0653242219969 -49.3063152031337 -0.00683124965057197 -4.37687622892458 -0.006831249650571 -4.37687622892442 -62.8159710151652 19.7192114872128
 230000000 -68.009868653679 -51.4302252834445 -0.00698202485473429 -4.57521165921733 -0.00698202485473332 -4.57521165921739 -62.736380186035 20.4353354960215
 240000000 -67.9525033003412 -53.5396695326129 -0.0071321037394868 -4.77349702608507 -0.00713210373948873 -4.77349702608512 -62.6548555522439 21.131935197227
 250000000 -67.8932900182501 -55.6342515810761 -0.00728109253667947 -4.97173449959717 -0.00728109253668043 -4.97173449959717 -62.5715403960523 21.8089328332804
 260000000 -67.8322913543618 -57.71359875596 -0.00742864141355317 -5.16992632717129 -0.00742864141355124 -5.16992632717129 -62.4865743003994 22.4663016186997
 270000000 -67.769570379044 -59.7773620362869 -0.00757444267060748 -5.36807480300342 -0.00757444267060555 -5.36807480300331 -62.4000927814604 23.1040620208201
 280000000 -67.7051905239206 -61.8252159305924 -0.00771822860244914 -5.56618224111586 -0.00771822860244818 -5.56618224111581 -62.3122269866305 23.7222780341973
 290000000 -67.6392154250778 -63.8568582859102 -0.00785976911689921 -5.76425095195526 -0.00785976911690018 -5.76425095195526 -62.2231034538475 24.3210534909043
 300000000 -67.5717087727402 -65.8720100292841 -0.00799886919626828 -5.96228322238802 -0.00799886919626924 -5.96228322238802 -62.1328439278123 24.9005284439104
 310000000 -67.5027341669225 -67.870414849238 -0.00813536627289514 -6.16028129889572 -0.00813536627289707 -6.16028129889562 -62.0415652284663 25.4608756506053
 320000000 -67.4323549808086 -69.8518388188173 -0.00826912757954581 -6.3582473737277 -0.00826912757954195 -6.3582473737278 -61.9493791667274 26.0022971856738
 330000000 -67.360634230803 -71.8160699685277 -0.00840004752366785 -6.55618357375441 -0.00840004752366592 -6.55618357375446 -61.856392502964 26.5250211964224
 340000000 -67.2876344545601 -73.7629178112516 -0.00852804512687495 -6.754091951743 -0.00852804512687688 -6.75409195174295 -61.7627069430179 27.0292988224055
 350000000 -67.2134175962218 -75.692212826388 -0.0086530615579384 -6.95197447979045 -0.00865306155793936 -6.9519744797904 -61.6684191676611 27.5154012822765
 360000000 -67.1380449000412 -77.6038059059119 -0.00877505778402522 -7.1498330446441 -0.00877505778402522 -7.14983304464405 -61.5736208906869 27.9836171400197
 370000000 -67.0615768115387 -79.4975677689245 -0.00889401235517878 -7.34766944465966 -0.00889401235517878 -7.34766944465966 -61.4783989417373 28.4342497519044
 380000000 -66.9840728865949 -81.3733883479813 -0.00900991933253728 -7.54548538815913 -0.00900991933253825 -7.54548538815911 -61.3828353699494 28.8676148935642
 390000000 -66.9055917082935 -83.2311761530266 -0.0091227863652953 -7.74328249297248 -0.0091227863652953 -7.74328249297248 -61.2870075649079 29.2840385670984
 400000000 -66.8261908117656 -85.0708576150201 -0.00923263291859579 -7.94106228696358 -0.00923263291859676 -7.94106228696358 -61.1909883914872 29.6838549845396
 410000000 -66.745926616315 -86.8923764161608 -0.0093394886505005 -8.13882620936523 -0.00933948865049856 -8.13882620936525 -61.0948463359397 30.0674047209284
 420000000 -66.6648543649446 -88.6956928082137 -0.00944339193397276 -8.33657561276477 -0.00944339193397083 -8.33657561276477 -60.99864566039 30.4350330312171
 430000000 -66.5830280712988 -90.4807829238739 -0.00954438851838996 -8.5343117656021 -0.00954438851839672 -8.53431176560211 -60.9024465633922 30.7870883251026
 440000000 -66.5005004733752 -92.2476380836698 -0.0096425303238496 -8.73203585506058 -0.0096425303238525 -8.73203585506058 -60.8063053446318 31.1239207892346
 450000000 -66.4173229938256 -93.9962641027948 -0.00973787435991412 -8.92974899024789 -0.00973787435991509 -8.92974899024786 -60.7102745718619 31.445881149832
 460000000 -66.3335457068622 -95.7266805990979 -0.00983048176127034 -9.12745220557794 -0.00983048176127034 -9.12745220557796 -60.6144032484989 31.753319567441
 470000000 -66.2492173110746 -97.4389203062709 -0.00992041693090954 -9.32514646428062 -0.00992041693091147 -9.32514646428058 -60.5187369806578 32.0465846536719
 480000000 -66.1643851079589 -99.1330283944226 -0.0100077467830597 -9.52283266197678 -0.0100077467830607 -9.52283266197675 -60.4233181424532 32.326022602177
 490000000 -66.0790949861491 -100.809061798985 -0.0100925400770559 -9.72051163026803 -0.0100925400770549 -9.72051163026808 -60.3281860384668 32.5919764255964
 500000000 -65.993391410534 -102.467088561747 -0.0101748668341439 -9.91818414029967 -0.010174866834143 -9.9181841402997 -60.2333770629228 32.8447852890417
 510000000 -65.9073174160735 -104.107187184136 -0.0102547978295629 -10.1158509062632 -0.0102547978295629 -10.1158509062631 -60.1389248546666 33.0847839329745
 520000000 -65.8209146064869 -105.729445995294 -0.0103324041524211 -10.3135125888121 -0.010332404152424 -10.3135125888121 -60.0448604474884 33.3123021786118
 530000000 -65.7342231565867 -107.333962535667 -0.0104077568267669 -10.5111697983731 -0.0104077568267679 -10.5111697983731 -59.9512124156107 33.5276645060605
 540000000 -65.6472818187883 -108.920842957109 -0.0104809264870886 -10.708823098333 -0.0104809264870886 -10.708823098333 -59.8580070137692 33.731189701585
 550000000 -65.5601279327396 -110.490201441161 -0.0105519831029884 -10.9064730080971 -0.0105519831029865 -10.9064730080971 -59.7652683119507 33.9231905648313
 560000000 -65.472797438591 -112.042159635059 -0.010620995746815 -11.1041200060062 -0.0106209957468141 -11.1041200060062 -59.6730183244447 34.1039736721118
 570000000 -65.3853248928053 -113.576846107682 -0.0106880324001438 -11.3017645321117 -0.0106880324001428 -11.3017645321117 -59.5812771333452 34.2738391885729
 580000000 -65.2977434866813 -115.094395823698 -0.0107531597939388 -11.4994069908062 -0.0107531597939368 -11.4994069908063 -59.4900630063402 34.4330807254023
 590000000 -65.2100850672104 -116.594949638499 -0.0108164432788713 -11.6970477533103 -0.0108164432788713 -11.6970477533103 -59.3993925089787 34.5819852359223
 600000000 -65.1223801601065 -118.078653812349 -0.0108779467215393 -11.8946871600158 -0.0108779467215432 -11.8946871600158 -59.3092806113168 34.7208329480616
 610000000 -65.0346579944077 -119.545659544712 -0.010937732424217 -12.0923255226918 -0.010937732424216 -12.0923255226919 -59.219740789271 34.8498973269105
 620000000 -64.9469465289827 -120.996122528814 -0.0109958610637892 -12.2899631265548 -0.0109958610637892 -12.2899631265548 -59.1307851206092 34.9694450657233
 630000000 -64.8592724801399 -122.43020252526 -0.0110523916485729 -12.4876002322081 -0.0110523916485739 -12.4876002322081 -59.0424243758521 35.0797361007445
 640000000 -64.7716613504874 -123.8480629558 -0.0111073814902061 -12.6852370774579 -0.0111073814902061 -12.6852370774579 -58.9546681042156 35.1810236473481
 650000000 -64.6841374589062 -125.249870516536 -0.01116088618787 -12.882873879008 -0.0111608861878729 -12.8828738790079 -58.8675247147658 35.2735542547043
 660000000 -64.5967239709932 -126.635794809419 -0.0112129596240795 -13.0805108340431 -0.0112129596240776 -13.0805108340432 -58.7810015530169 35.3575678760848
 670000000 -64.5094429305112 -128.006007993438 -0.0112636539694751 -13.278148121703 -0.0112636539694771 -13.278148121703 -58.695104973077 35.4332979531553
 680000000 -64.4223152908097 -129.360684452436 -0.0113130196958824 -13.4757859044557 -0.0113130196958844 -13.4757859044557 -58.6098404056473 35.500971511591
 690000000 -64.3353609471332 -130.700000482357 -0.0113611055957913 -13.6734243293747 -0.0113611055957961 -13.6734243293747 -58.5252124219413 35.5608092669273
 700000000 -64.2485987686144 -132.024133994492 -0.011407958807316 -13.8710635293255 -0.0114079588073169 -13.8710635293255 -58.4412247938463 35.6130257379867
 710000000 -64.1620466307053 -133.333264235973 -0.0114536248440012 -14.0687036240677 -0.0114536248440041 -14.0687036240677 -58.3578805503822 35.6578293677039
 720000000 -64.0757214472432 -134.627571526017 -0.0114981476280806 -14.2663447212785 -0.0114981476280797 -14.2663447212785 -58.275182030786 35.6954226486523
 730000000 -63.989639202629 -135.907237007977 -0.0115415695266998 -14.4639869175007 -0.0115415695266979 -14.4639869175007 -58.1931309342592 35.726002253364
 740000000 -63.903814983726 -137.172442416884 -0.0115839313905258 -14.6616302990218 -0.0115839313905268 -14.6616302990218 -58.1117283666544 35.7497591676874
 750000000 -63.8182630112628 -138.423369860282 -0.0116252725941012 -14.8592749426892 -0.0116252725941012 -14.8592749426892 -58.0309748842381 35.7668788263005
 760000000 -63.7329966711398 -139.660201614317 -0.011665631077415 -15.056920916664 -0.0116656310774159 -15.056920916664 -57.950870534674 35.7775412499995
 770000000 -63.6480285450837 -140.883119931915 -0.0117050433883353 -15.2545682811193 -0.0117050433883363 -15.2545682811193 -57.871414895403 35.7819211835147
 780000000 -63.5633704408539 -142.092306864593 -0.0117435447253309 -15.452217088886 -0.011743544725329 -15.4522170888859 -57.7926071095923 35.7801882337088
 790000000 -63.4790334219661 -143.287944096089 -0.0117811689807728 -15.6498673860504 -0.0117811689807718 -15.6498673860504 -57.7144459197064 35.7725070074762
 800000000 -63.3950278367117 -144.470212787263 -0.0118179487837722 -15.8475192125066 -0.0118179487837722 -15.8475192125066 -57.6369296989963 35.7590372485116
 810000000 -63.3113633467215 -145.639293433151 -0.0118539155429018 -16.0451726024669 -0.0118539155429008 -16.0451726024669 -57.5600564808239 35.7399339733437
 820000000 -63.2280489546753 -146.795365729175 -0.011889099488492 -16.2428275849337 -0.011889099488491 -16.2428275849337 -57.483823986164 35.7153476053162
 830000000 -63.1450930315133 -147.938608448482 -0.011923529714077 -16.4404841841354 -0.011923529714079 -16.4404841841354 -57.4082296492423 35.6854241070172
 840000000 -63.0625033428638 -149.069199328607 -0.0119572342173225 -16.6381424199287 -0.0119572342173216 -16.6381424199288 -57.3332706414512 35.650305110805
 850000000 -62.9802870747463 -150.187314966497 -0.0119902399400954 -16.8358023081709 -0.0119902399400945 -16.8358023081709 -57.2589438937721 35.6101280462988
 860000000 -62.8984508585943 -151.293130723024 -0.0120225728072565 -17.033463861062 -0.0120225728072565 -17.033463861062 -57.1852461175708 35.5650262663274
 870000000 -62.8170007955647 -152.386820635014 -0.0120542577649519 -17.2311270874621 -0.0120542577649509 -17.2311270874621 -57.1121738241013 35.5151291695772
 880000000 -62.7359424800582 -153.46855733523 -0.0120853188175317 -17.4287919931838 -0.0120853188175327 -17.4287919931838 -57.039723342633 35.4605623208215
 890000000 -62.6552810225597 -154.538511979592 -0.0121157790635149 -17.6264585812611 -0.0121157790635159 -17.6264585812611 -56.9678908373444 35.4014475684064
 900000000 -62.575021071683 -155.596854180719 -0.0121456607304553 -17.8241268521985 -0.0121456607304524 -17.8241268521985 -56.8966723231342 35.3379031585049
 910000000 -62.4951668355996 -156.643751949054 -0.0121749852086675 -18.0217968042 -0.0121749852086675 -18.0217968042 -56.8260636802386 35.2700438470852
 920000000 -62.4157221025895 -157.679371638651 -0.0122037730838204 -18.2194684333809 -0.0122037730838223 -18.2194684333809 -56.756060667953 35.1979810082579
 930000000 -62.3366902610305 -158.703877899821 -0.0122320441685702 -18.4171417339622 -0.0122320441685692 -18.4171417339622 -56.6866589373172 35.1218227402236
 940000000 -62.258074318553 -159.717433636358 -0.0122598175327893 -18.6148166984504 -0.0122598175327873 -18.6148166984504 -56.6178540429891 35.0416739679256
 950000000 -62.1798769206579 -160.720199968672 -0.0122871115331468 -18.8124933178029 -0.0122871115331449 -18.8124933178029 -56.5496414542038 34.9576365431214
 960000000 -62.1021003684328 -161.712336200466 -0.0123139438411571 -19.0101715815803 -0.0123139438411571 -19.0101715815803 -56.4820165650581 34.8698093411605
 970000000 -62.0247466358341 -162.69399979086 -0.0123403314704566 -19.2078514780867 -0.0123403314704566 -19.2078514780867 -56.4149747039902 34.7782883551692
 980000000 -61.9478173861471 -163.665346330272 -0.0123662908029919 -19.4055329944989 -0.0123662908029899 -19.4055329944989 -56.3485111426271 34.6831667872978
 990000000 -61.8713139878702 -164.626529519904 -0.0123918376141558 -19.6032161169854 -0.0123918376141548 -19.6032161169854 -56.2826211039788 34.5845351372224
 1000000000 -61.7952375300061 -165.577701155637 -0.0124169870970688 -19.8009008308154 -0.0124169870970669 -19.8009008308154 -56.2172997700426 34.4824812878962
 1010000000 -61.7195888366561 -166.519011114182 -0.0124417538856649 -19.9985871204597 -0.0124417538856688 -19.9985871204597 -56.1525422888721 34.3770905885768
 1020000000 -61.6443684811383 -167.450607343491 -0.0124661520772197 -20.196274969683 -0.0124661520772197 -20.196274969683 -56.0883437811016 34.2684459352147
 1030000000 -61.5695767994046 -168.372635855231 -0.0124901952535613 -20.3939643616287 -0.0124901952535632 -20.3939643616287 -56.0246993460125 34.1566278484088
 1040000000 -61.4952139030028 -169.285240720606 -0.0125138965017736 -20.5916552788973 -0.0125138965017736 -20.5916552788973 -55.9616040671402 34.0417145486255
 1050000000 -61.4212796914483 -170.188564068194 -0.0125372684339266 -20.7893477036177 -0.0125372684339276 -20.7893477036177 -55.8990530174523 33.9237820292397
 1060000000 -61.3477738640878 -171.082746084577 -0.0125603232058921 -20.9870416175129 -0.0125603232058892 -20.9870416175129 -55.8370412641436 33.8029041268912
 1070000000 -61.2746959314101 -171.967925016728 -0.0125830725356184 -21.1847370019608 -0.0125830725356175 -21.1847370019608 -55.7755638730631 33.6791525897828
 1080000000 -61.202045225959 -172.844237176787 -0.0126055277204163 -21.3824338380487 -0.0126055277204144 -21.3824338380487 -55.7146159128082 33.5525971435724
 1090000000 -61.1298209126605 -173.711816948368 -0.0126276996537247 -21.5801321066244 -0.0126276996537266 -21.5801321066244 -55.6541924584663 33.4233055551595
 1100000000 -61.0580219987911 -174.570796794852 -0.0126495988411032 -21.7778317883424 -0.0126495988411032 -21.7778317883424 -55.5942885950864 33.291343694274
 1110000000 -60.9866473434045 -175.421307268855 -0.0126712354155562 -21.9755328637064 -0.0126712354155591 -21.9755328637064 -55.5348994208937 33.1567755930093
 1120000000 -60.9156956664433 -176.263477023638 -0.0126926191520625 -22.1732353131074 -0.0126926191520596 -22.1732353131074 -55.4760200501732 33.019663503439
 1130000000 -60.8451655573405 -177.097432825536 -0.0127137594818801 -22.3709391168598 -0.0127137594818772 -22.3709391168597 -55.4176456159857 32.8800679532226
 1140000000 -60.7750554832759 -177.923299567422 -0.0127346655058524 -22.5686442552329 -0.0127346655058562 -22.5686442552329 -55.359771272619 32.7380477993322
 1150000000 -60.7053637970561 -178.741200283783 -0.0127553460075291 -22.766350708481 -0.012755346007531 -22.766350708481 -55.3023921978347 32.5936602799891
 1160000000 -60.636088744589 -179.551256166089 -0.0127758094652747 -22.9640584568694 -0.0127758094652747 -22.9640584568694 -55.2455035949354 32.4469610648116
 1170000000 -60.5672284720639 179.646413419953 -0.0127960640644386 -23.1617674806988 -0.0127960640644376 -23.1617674806988 -55.1891006946039 32.2980043033647
 1180000000 -60.4987810327228 178.851690917507 -0.0128161177084124 -23.3594777603275 -0.0128161177084134 -23.3594777603276 -55.133178756635 32.1468426719166
 1190000000 -60.430744393378 178.064460560095 -0.0128359780297734 -23.5571892761912 -0.0128359780297715 -23.5571892761912 -55.0777330714665 31.9935274187369
 1200000000 -60.3631164405682 177.284608352668 -0.012855652400598 -23.7549020088208 -0.012855652400599 -23.7549020088208 -55.0227589615623 31.8381084077531
 1210000000 -60.2958949864396 176.512022052359 -0.0128751479424882 -23.9526159388587 -0.0128751479424891 -23.9526159388587 -54.9682517826784 31.6806341608221
 1220000000 -60.2290777743294 175.746591148387 -0.0128944715361099 -24.1503310470737 -0.0128944715361099 -24.1503310470737 -54.9142069249964 31.5211518984844
 1230000000 -60.1626624840831 174.98820684161 -0.0129136298305195 -24.3480473143736 -0.0129136298305195 -24.3480473143736 -54.8606198141106 31.359707579518
 1240000000 -60.0966467370938 174.23676202388 -0.0129326292517733 -24.5457647218171 -0.0129326292517752 -24.5457647218171 -54.8074859119515 31.1963459387914
 1250000000 -60.0310281011305 173.49215125659 -0.0129514760115364 -24.7434832506245 -0.0129514760115364 -24.7434832506245 -54.7548007175613 31.0311105242488
 1260000000 -59.9658040948523 172.754270749535 -0.0129701761150078 -24.9412028821863 -0.0129701761150087 -24.9412028821863 -54.7025597677981 30.8640437323939
 1270000000 -59.9009721921646 172.023018339129 -0.0129887353688638 -25.138923598072 -0.0129887353688609 -25.138923598072 -54.6507586379561 30.6951868426366
 1280000000 -59.8365298263224 171.298293466359 -0.0130071593885151 -25.3366453800371 -0.0130071593885161 -25.3366453800371 -54.5993929422753 30.5245800505377
 1290000000 -59.7724743938072 170.579997155034 -0.0130254536053045 -25.5343682100292 -0.0130254536053035 -25.5343682100292 -54.5484583343985 30.3522624998531
 1300000000 -59.7088032580413 169.868031989447 -0.0130436232733919 -25.7320920701937 -0.0130436232733919 -25.7320920701937 -54.497950507767 30.1782723135179
 1310000000 -59.645513752864 169.162302092222 -0.0130616734761947 -25.9298169428781 -0.0130616734761937 -25.9298169428781 -54.4478651959053 30.0026466237161
 1320000000 -59.582603185882 168.462713101936 -0.01307960913279 -26.1275428106364 -0.0130796091327861 -26.1275428106364 -54.3981981726905 29.8254216007328
 1330000000 -59.5200688415684 167.769172150935 -0.0130974350038781 -26.325269656232 -0.0130974350038761 -26.3252696562321 -54.3489452525511 29.6466324810377
 1340000000 -59.4579079842634 167.081587842945 -0.013115155697517 -26.5229974626409 -0.0131151556975189 -26.5229974626409 -54.3001022905934 29.4663135943306
 1350000000 -59.396117860973 166.399870230894 -0.0131327756748405 -26.7207262130533 -0.0131327756748357 -26.7207262130533 -54.2516651827189 29.2844983897259
 1360000000 -59.3346957040224 165.723930794681 -0.0131502992551692 -26.9184558908757 -0.0131502992551672 -26.9184558908757 -54.2036298656519 29.1012194610229
 1370000000 -59.2736387335967 165.053682418972 -0.0131677306213414 -27.116186479732 -0.0131677306213404 -27.116186479732 -54.1559923169592 28.9165085712612
 1380000000 -59.212944160077 164.389039371316 -0.0131850738243195 -27.3139179634642 -0.0131850738243205 -27.3139179634642 -54.1087485550283 28.73039667629
 1390000000 -59.1526091863029 163.729917280131 -0.0132023327883732 -27.5116503261331 -0.0132023327883732 -27.5116503261331 -54.0618946389811 28.5429139477629
 1400000000 -59.0926310096873 163.07623311298 -0.0132195113150117 -27.709383552018 -0.0132195113150126 -27.709383552018 -54.0154266685957 28.354089795212
 1410000000 -59.0330068241967 162.42790515496 -0.0132366130877917 -27.9071176256169 -0.0132366130877888 -27.9071176256169 -53.9693407841761 28.1639528874912
 1420000000 -58.9737338222471 161.784852987234 -0.0132536416762694 -28.1048525316456 -0.0132536416762674 -28.1048525316456 -53.9236331663869 27.9725311734974
 1430000000 -58.9148091964649 161.14699746567 -0.0132706005401095 -28.3025882550371 -0.0132706005401114 -28.3025882550371 -53.878300036091 27.7798519022587
 1440000000 -58.85623014135 160.514260699927 -0.0132874930328216 -28.5003247809408 -0.0132874930328216 -28.5003247809408 -53.8333376541331 27.5859416422883
 1450000000 -58.7979938548495 159.886566032344 -0.0133043224054746 -28.6980620947208 -0.0133043224054736 -28.6980620947208 -53.7887423211258 27.3908263004166
 1460000000 -58.7400975398265 159.263838017389 -0.01332109181039 -28.895800181955 -0.013321091810389 -28.8958001819549 -53.7445103772023 27.1945311399524
 1470000000 -58.6825384054413 158.646002401201 -0.013337804304321 -29.0935390284328 -0.013337804304322 -29.0935390284328 -53.7006382017633 26.997080798247
 1480000000 -58.6253136684608 158.032986101211 -0.013354462851997 -29.2912786201545 -0.0133544628519961 -29.2912786201545 -53.6571222131953 26.7984993038074
 1490000000 -58.5684205544508 157.424717186204 -0.0133710703289658 -29.4890189433283 -0.0133710703289677 -29.4890189433283 -53.6139588685853 26.5988100927148
 1500000000 -58.5118562989456 156.821124856629 -0.0133876295249931 -29.686759984369 -0.0133876295249931 -29.686759984369 -53.571144663418 26.3980360246587
 1510000000 -58.4556181484847 156.222139424714 -0.0134041431465746 -29.8845017298955 -0.0134041431465765 -29.8845017298955 -53.5286761312625 26.1961993984101
 1520000000 -58.3997033616342 155.627692295622 -0.0134206138201738 -30.0822441667289 -0.0134206138201728 -30.0822441667289 -53.4865498434465 25.9933219667412
 1530000000 -58.3441092099007 155.037715948012 -0.0134370440944632 -30.27998728189 -0.0134370440944613 -30.27998728189 -53.4447624087261 25.7894249510105
 1540000000 -58.288832978604 154.45214391537 -0.0134534364432446 -30.4777310625971 -0.0134534364432456 -30.4777310625971 -53.4033104729427 25.5845290552129
 1550000000 -58.2338719676922 153.87091076753 -0.013469793267871 -30.6754754962634 -0.013469793267871 -30.6754754962634 -53.3621907186736 25.3786544796082
 1560000000 -58.1792234924808 153.293952092262 -0.0134861168996164 -30.8732205704949 -0.0134861168996125 -30.8732205704949 -53.3213998648827 25.1718209339096
 1570000000 -58.124884884356 152.72120447719 -0.013502409601987 -31.0709662730875 -0.0135024096019851 -31.0709662730875 -53.2809346665488 24.9640476501018
 1580000000 -58.0708534914236 152.152605492174 -0.0135186735728658 -31.2687125920243 -0.0135186735728658 -31.2687125920243 -53.2407919143171 24.7553533948418
 1590000000 -58.0171266791058 151.588093671642 -0.0135349109469059 -31.4664595154737 -0.0135349109469059 -31.4664595154737 -53.2009684341126 24.5457564815241
 1600000000 -57.9637018306921 151.027608497358 -0.0135511237973537 -31.6642070317863 -0.0135511237973556 -31.6642070317863 -53.161461086789 24.3352747818583
 1610000000 -57.9105763478555 150.471090381372 -0.0135673141380267 -31.8619551294921 -0.0135673141380277 -31.8619551294922 -53.122266767726 24.1239257372821
 1620000000 -57.8577476511099 149.918480649325 -0.0135834839254317 -32.0597037972985 -0.0135834839254288 -32.0597037972985 -53.0833824064874 23.9117263698339
 1630000000 -57.8052131802469 149.369721523886 -0.0135996350604597 -32.257453024087 -0.0135996350604597 -32.257453024087 -53.0448049664068 23.6986932928772
 1640000000 -57.7529703947306 148.824756108555 -0.0136157693901685 -32.4552027989108 -0.0136157693901685 -32.4552027989108 -53.0065314442364 23.4848427213504
 1650000000 -57.7010167740453 148.283528371651 -0.0136318887094953 -32.6529531109925 -0.0136318887094953 -32.6529531109925 -52.9685588697546 23.2701904818254
 1660000000 -57.6493498180366 147.745983130543 -0.0136479947630203 -32.8507039497207 -0.0136479947630251 -32.8507039497207 -52.930884305386 23.0547520222024
 1670000000 -57.5979670471873 147.212066036248 -0.0136640892463411 -33.0484553046482 -0.0136640892463402 -33.0484553046482 -52.8935048458271 22.8385424211212
 1680000000 -57.5468660028908 146.681723558067 -0.013680173807842 -33.2462071654887 -0.013680173807843 -33.2462071654886 -52.8564176176605 22.6215763971407
 1690000000 -57.4960442476893 146.154902968737 -0.0136962500499961 -33.4439595221146 -0.0136962500499952 -33.4439595221146 -52.8196197789816 22.4038683176188
 1700000000 -57.4454993654804 145.63155232957 -0.0137123195308411 -33.6417123645543 -0.0137123195308411 -33.6417123645543 -52.7831085190203 22.185432207297
 1710000000 -57.3952289617072 145.111620475974 -0.0137283837653974 -33.8394656829894 -0.0137283837654003 -33.8394656829895 -52.7468810577637 21.9662817567335
 1720000000 -57.3452306635103 144.595057003289 -0.0137444442269465 -34.0372194677528 -0.0137444442269465 -34.0372194677528 -52.7109346455877 21.7464303303707
 1730000000 -57.2955021198752 144.081812252608 -0.0137605023482991 -34.2349737093251 -0.0137605023482972 -34.2349737093251 -52.6752665628801 21.5258909744576
 1740000000 -57.2460410017542 143.571837297103 -0.013776559523189 -34.4327283983334 -0.013776559523189 -34.4327283983334 -52.6398741196716 21.3046764247306
 1750000000 -57.196845002164 143.065083928443 -0.0137926171071402 -34.6304835255476 -0.0137926171071373 -34.6304835255476 -52.6047546552697 21.082799113847
 1760000000 -57.1479118362617 142.56150464342 -0.0138086764189833 -34.8282390818789 -0.0138086764189852 -34.8282390818789 -52.5699055379007 20.8602711786031
 1770000000 -57.0992392414122 142.061052630904 -0.0138247387416032 -35.0259950583765 -0.0138247387416032 -35.0259950583766 -52.5353241643323 20.6371044670176