# Hz S DB R 50
!Touchstone multiport model file <C:\work\PySI\TestSignalIntegrity\OysterSimulation\ResampledSimbeor\Open6.s1p>
!Created on 22 Aug 18, at 17:55:32.
!Created with Simbeor THz 2018.01(64bit) of Simberian Inc. built on Jul 20 2018

!Output from MultiportParameters of Simbeor.
!Multiport parameters: DataOrigin=Simulation DataOriginName="Project(1).Open6_resampled.LNS"
!RESAMPLED_RCM: Max_RMS_Error=0.0181526; FrqLow=0; FrqHigh=4e+10; MaxTimeResolution=1.25e-11; PassivityState=1; ReciprocityState=1; DataSource=" Âl°n"
!RATIONAL COMPACTOR: Precision: Normal; Extract Delay: ON; Extrapolate to DC: ON; Extrapolate to Infinity: OFF; Enforce Passivity: ON; Enforce Reciprocity: ON; Band Limit Factor: 1; Auto-Adjust Config: OFF

!Uncomment the following lines with keywords in square brakets to support IBIS forum specification 2.0.
![Version] 2.0 !This line should be the first in file, preceeding the line starting with #.
![Number of Ports] 1
![Number of Frequencies] 8001
![Reference] 50

!!!!Multiport descriptor profile: InputCount=1 TotalPortCount=1
!DescriptorOutline={DescriptorType=SMatrix InputSpace=Terminal NormalizationType=CommonZo NormalizationCommonZo=50 Ohm OutputFormat=DBMagnitudeAngle}
!InputProfile={Name="IO1" IsTLineInput=False InputNumber=1 PortCount=1 FirstPortNumber=1 InputSpace=Terminal BlockType=SBlock NormalizationType=CommonZo Zo=50}

!!!Global port number to input_name/local_port_number correspondence:
!Port 1 -> "IO1"/local_port_1 (terminal)
!!!!End of descriptor profile.

!Frequency Hz 20.0*log(|S[1,1]|) arg(S[1,1])
 0 -0.0498783424339836 0
 10000000 -0.0498807398126871 -0.272653379954866
 20000000 -0.0498879317092572 -0.54530640518005
 30000000 -0.0498999174050439 -0.817958720966652
 40000000 -0.0499166957022758 -1.09060997264769
 50000000 -0.0499382649241272 -1.36325980561856
 60000000 -0.0499646229147126 -1.63590786535812
 70000000 -0.0499957670390508 -1.90855379744932
 80000000 -0.0500316941832026 -2.18119724759987
 90000000 -0.0500724007541868 -2.45383786166296
 100000000 -0.050117882680095 -2.72647528565774
 110000000 -0.0501681354100781 -2.99910916578963
 120000000 -0.0502231539144093 -3.27173914847091
 130000000 -0.0502829326845135 -3.54436488034053
 140000000 -0.0503474657329874 -3.81698600828463
 150000000 -0.0504167465936896 -4.08960217945611
 160000000 -0.0504907683217116 -4.36221304129443
 170000000 -0.0505695234934699 -4.63481824154528
 180000000 -0.0506530042067374 -4.90741742827995
 190000000 -0.0507412020806092 -5.18001024991436
 200000000 -0.0508341082556366 -5.45259635522816
 210000000 -0.050931713393716 -5.72517539338339
 220000000 -0.051034007678216 -5.99774701394293
 230000000 -0.0511409808138989 -6.27031086688877
 240000000 -0.0512526220269684 -6.54286660263983
 250000000 -0.0513689200649693 -6.81541387206966
 260000000 -0.0514898631968481 -7.08795232652375
 270000000 -0.0516154392128256 -7.36048161783641
 280000000 -0.0517456354243368 -7.63300139834757
 290000000 -0.0518804386639735 -7.90551132091882
 300000000 -0.0520198352853222 -8.17801103894952
 310000000 -0.0521638111628497 -8.45050020639206
 320000000 -0.0523123516917266 -8.72297847776709
 330000000 -0.05246544178763 -8.99544550817789
 340000000 -0.0526230658864991 -9.26790095332474
 350000000 -0.052785207944282 -9.54034446951835
 360000000 -0.0529518514366046 -9.812775713693
 370000000 -0.0531229793584719 -10.0851943434194
 380000000 -0.0532985742237478 -10.3576000169164
 390000000 -0.0534786180648775 -10.6299923930622
 400000000 -0.0536630924322081 -10.9023711314059
 410000000 -0.0538519783935759 -11.174735892177
 420000000 -0.0540452565335325 -11.4470863362951
 430000000 -0.0542429069528139 -11.7194221253788
 440000000 -0.054444909267424 -11.9917429217533
 450000000 -0.0546512426078993 -12.2640483884585
 460000000 -0.054861885618291 -12.5363381892544
 470000000 -0.0550768164552835 -12.8086119886277
 480000000 -0.0552960127868835 -13.0808694517959
 490000000 -0.055519451791375 -13.3531102447111
 500000000 -0.0557471101559575 -13.6253340340633
 510000000 -0.0559789640752294 -13.8975404872819
 520000000 -0.0562149892497119 -14.1697292725363
 530000000 -0.0564551608841233 -14.441900058736
 540000000 -0.0566994536855656 -14.7140525155286
 550000000 -0.0569478418614673 -14.9861863132974
 560000000 -0.0572002991175502 -15.2583011231574
 570000000 -0.057456798655399 -15.5303966169498
 580000000 -0.0577173131700679 -15.8024724672352
 590000000 -0.0579818148473383 -16.0745283472856
 600000000 -0.058250275360827 -16.3465639310746
 610000000 -0.0585226658689217 -16.6185788932658
 620000000 -0.0587989570113922 -16.8905729092002
 630000000 -0.0590791189058399 -17.1625456548808
 640000000 -0.0593631211438418 -17.4344968069562
 650000000 -0.0596509327868412 -17.7064260427021
 660000000 -0.0599425223616986 -17.9783330399999
 670000000 -0.0602378578559904 -18.2502174773144
 680000000 -0.0605369067129582 -18.5220790336682
 690000000 -0.0608396358260426 -18.7939173886144
 700000000 -0.0611460115331243 -19.065732222206
 710000000 -0.0614559996103035 -19.3375232149633
 720000000 -0.0617695652653037 -19.6092900478382
 730000000 -0.0620866731303573 -19.8810324021757
 740000000 -0.0624072872546719 -20.1527499596715
 750000000 -0.0627313710963031 -20.4244424023277
 760000000 -0.0630588875135915 -20.6961094124034
 770000000 -0.0633897987559195 -20.9677506723633
 780000000 -0.0637240664538567 -21.2393658648204
 790000000 -0.0640616516086793 -21.5109546724764
 800000000 -0.0644025145811466 -21.7825167780564
 810000000 -0.0647466150795447 -22.0540518642398
 820000000 -0.0650939121469247 -22.3255596135857
 830000000 -0.0654443641474715 -22.5970397084536
 840000000 -0.065797928751911 -22.8684918309178
 850000000 -0.0661545629220217 -23.1399156626766
 860000000 -0.0665142228940066 -23.4113108849548
 870000000 -0.066876864160844 -23.6826771784001
 880000000 -0.0672424414532866 -23.9540142229714
 890000000 -0.0676109087197546 -24.2253216978207
 900000000 -0.0679822191046721 -24.496599281166
 910000000 -0.0683563249254805 -24.7678466501562
 920000000 -0.0687331776479325 -25.0390634807267
 930000000 -0.0691127278597892 -25.3102494474451
 940000000 -0.0694949252426281 -25.5814042233467
 950000000 -0.069879718541685 -25.8525274797583
 960000000 -0.0702670555336568 -26.1236188861111
 970000000 -0.0706568829921714 -26.3946781097395
 980000000 -0.0710491466507252 -26.6657048156672
 990000000 -0.0714437911633023 -26.9366986663781
 1000000000 -0.0718407600616556 -27.2076593215718
 1010000000 -0.0722399957100951 -27.4785864379018
 1020000000 -0.0726414392564343 -27.7494796686953
 1030000000 -0.0730450305797314 -28.0203386636545
 1040000000 -0.0734507082340364 -28.2911630685353
 1050000000 -0.0738584093879137 -28.5619525248046
 1060000000 -0.0742680697594674 -28.8327066692725
 1070000000 -0.0746796235464872 -29.1034251336973
 1080000000 -0.0750930033511508 -29.374107544364
 1090000000 -0.0755081400991223 -29.6447535216296
 1100000000 -0.0759249629520623 -29.9153626794365
 1110000000 -0.0763433992135729 -30.1859346247888
 1120000000 -0.0767633742274454 -30.45646895719
 1130000000 -0.077184811267893 -30.7269652680373
 1140000000 -0.0776076314208105 -30.9974231399706
 1150000000 -0.0780317534553038 -31.2678421461698
 1160000000 -0.0784570936846237 -31.5382218495982
 1170000000 -0.0788835658154108 -31.808561802186
 1180000000 -0.0793110807841271 -32.0788615439475
 1190000000 -0.0797395465794553 -32.349120602029
 1200000000 -0.0801688680493207 -32.6193384896767
 1210000000 -0.0805989466908155 -32.8895147051203
 1220000000 -0.0810296804214147 -33.1596487303625
 1230000000 -0.0814609633296155 -33.429740029867
 1240000000 -0.0818926854025081 -33.6997880491315
 1250000000 -0.0823247322282329 -33.9697922131383
 1260000000 -0.0827569846703313 -34.2397519246676
 1270000000 -0.0831893185108892 -34.509666562459
 1280000000 -0.0836216040591037 -34.7795354792073
 1290000000 -0.084053705721302 -35.049357999373
 1300000000 -0.084485481527826 -35.3191334167883
 1310000000 -0.0849167826119949 -35.5888609920366
 1320000000 -0.0853474526350424 -35.8585399495791
 1330000000 -0.085777327150781 -36.1281694746008
 1340000000 -0.0862062329023953 -36.3977487095438
 1350000000 -0.086633987042833 -36.6672767502897
 1360000000 -0.0870603962689243 -36.936752641952
 1370000000 -0.0874852558582327 -37.206175374229
 1380000000 -0.0879083485953151 -37.475543876264
 1390000000 -0.0883294435727308 -37.7448570109517
 1400000000 -0.0887482948493219 -38.01411356862
 1410000000 -0.0891646399457543 -38.2833122600054
 1420000000 -0.0895781981537408 -38.5524517084303
 1430000000 -0.0899886686319098 -38.8215304410737
 1440000000 -0.0903957282560581 -39.0905468792122
 1450000000 -0.0907990291863507 -39.3594993272868
 1460000000 -0.0911981961071556 -39.6283859606291
 1470000000 -0.0915928230872554 -39.8972048116524
 1480000000 -0.091982469998061 -40.1659537542807
 1490000000 -0.0923666584162263 -40.4346304863499
 1500000000 -0.0927448669218384 -40.7032325096679
 1510000000 -0.093116525686226 -40.9717571073675
 1520000000 -0.0934810102214836 -41.2402013181152
 1530000000 -0.0938376341365932 -41.5085619066614
 1540000000 -0.0941856407118704 -41.776835330119
 1550000000 -0.0945241930614662 -42.0450176992367
 1560000000 -0.0948523626011397 -42.3131047337918
 1570000000 -0.0951691154719847 -42.5810917110479
 1580000000 -0.0954732964866826 -42.8489734060054
 1590000000 -0.0957636100567495 -43.1167440219077
 1600000000 -0.0960385974198396 -43.3843971091293
 1610000000 -0.0962966093067706 -43.6519254701687
 1620000000 -0.096535772951012 -43.9193210479501
 1630000000 -0.0967539520338765 -44.1865747940071
 1640000000 -0.0969486977456346 -44.4536765123192
 1650000000 -0.0971171885899222 -44.7206146735774
 1660000000 -0.0972561558106958 -44.9873761934055
 1670000000 -0.0973617902978827 -45.2539461664993
 1680000000 -0.097429625414686 -45.5203075467076
 1690000000 -0.0974543882131846 -45.7864407606794
 1700000000 -0.097429808709007 -46.0523232398
 1710000000 -0.0973483728747412 -46.3179288517135
 1720000000 -0.0972009991778597 -46.58322720893
 1730000000 -0.0969766098706066 -46.8481828282668
 1740000000 -0.0966615552955291 -47.1127541123101
 1750000000 -0.0962388296810641 -47.3768921253198
 1760000000 -0.0956869860521949 -47.640539146775
 1770000000 -0.0949786087769898 -47.9036270186816
 1780000000 -0.0940781223076444 -48.1660753853301
 1790000000 -0.0929385812377422 -48.4277901174007
 1800000000 -0.0914968581631817 -48.688662654142
 1810000000 -0.0896662429402694 -48.9485720093669
 1820000000 -0.0873247359270965 -49.207393546034
 1830000000 -0.0842959526639063 -49.4650242903925
 1840000000 -0.0803169440494162 -49.7214487336576
 1850000000 -0.0749821760931109 -49.9769063942442
 1860000000 -0.0676434132854868 -50.2323267542878
 1870000000 -0.0572305754029405 -50.4905085340746
 1880000000 -0.0419605898727112 -50.7595040035081
 1890000000 -0.0191254736303429 -51.0627667770897
 1900000000 0.0129616101098317 -51.4673706662052
 1910000000 0.0396249281210514 -52.1113942043129
 1920000000 0.00523737554378408 -52.9111069648152
 1930000000 -0.0755107496219427 -53.2964164069201
 1940000000 -0.1230626147742 -53.3759488237472
 1950000000 -0.140781361289677 -53.4547732343486
 1960000000 -0.146397018283735 -53.5876575133183
 1970000000 -0.147667021777188 -53.7622026440999
 1980000000 -0.147402318419626 -53.9638620778888
 1990000000 -0.146636952452607 -54.1830747960912
 2000000000 -0.145764813468406 -54.4139768250097
 2010000000 -0.144936482286949 -54.6529310120786
 2020000000 -0.144205423759341 -54.8976125936319
 2030000000 -0.14358525249865 -55.1464857111418
 2040000000 -0.1430733445587 -55.3985033409893
 2050000000 -0.142660923342805 -55.6529311148671
 2060000000 -0.142337432370208 -55.9092407375176
 2070000000 -0.14209240303162 -56.1670435258165
 2080000000 -0.141916198015855 -56.4260477607794
 2090000000 -0.141800247060254 -56.6860305874325
 2100000000 -0.141737057904324 -56.9468190485757
 2110000000 -0.141720134186724 -57.2082770003916
 2120000000 -0.141743861654092 -57.4702959048845
 2130000000 -0.141803390645008 -57.7327882326014
 2140000000 -0.141894526804978 -57.9956826574356
 2150000000 -0.142013634344548 -58.2589205039081
 2160000000 -0.142157552586443 -58.5224530842298
 2170000000 -0.142323524980949 -58.7862396770398
 2180000000 -0.142509139176006 -59.050245975342
 2190000000 -0.142712276599412 -59.3144428819314
 2200000000 -0.142931070090097 -59.5788055652278
 2210000000 -0.143163868277015 -59.8433127124109
 2220000000 -0.143409205586737 -60.1079459335702
 2230000000 -0.143665776936321 -60.3726892825461
 2240000000 -0.143932416324505 -60.6375288687419
 2250000000 -0.144208078669347 -60.9024525404444
 2260000000 -0.144491824353751 -61.1674496247941
 2270000000 -0.144782806034411 -61.4325107129615
 2280000000 -0.145080257347713 -61.6976274816476
 2290000000 -0.145383483209599 -61.9627925439569
 2300000000 -0.145691851458703 -62.2279993241728
 2310000000 -0.146004785635058 -62.4932419520927
 2320000000 -0.146321758721386 -62.7585151734559
 2330000000 -0.146642287703073 -63.0238142736851
 2340000000 -0.146965928826351 -63.289135012692
 2350000000 -0.147292273453673 -63.5544735689225
 2360000000 -0.147620944431595 -63.8198264911523
 2370000000 -0.14795159289945 -64.0851906568117
 2380000000 -0.148283895478337 -64.3505632358306
 2390000000 -0.148617551789203 -64.6159416591729
 2400000000 -0.148952282256261 -64.8813235913642
 2410000000 -0.149287826158561 -65.146706906437
 2420000000 -0.149623939897918 -65.4120896668061
 2430000000 -0.149960395455955 -65.677470104668
 2440000000 -0.150296979016639 -65.9428466055787
 2450000000 -0.150633489734349 -66.2082176939188
 2460000000 -0.150969738629664 -66.473582019997
 2470000000 -0.151305547598209 -66.7389383485824
 2480000000 -0.151640748519004 -67.0042855486811
 2490000000 -0.151975182451078 -67.2696225844062
 2500000000 -0.152308698908532 -67.5349485068044
 2510000000 -0.152641155205013 -67.8002624465246
 2520000000 -0.152972415860285 -68.0655636072313
 2530000000 -0.153302352062091 -68.3308512596715
 2540000000 -0.153630841177365 -68.5961247363254
 2550000000 -0.153957766307748 -68.8613834265713
 2560000000 -0.15428301588475 -69.1266267723099
 2570000000 -0.154606483300538 -69.3918542639965
 2580000000 -0.154928066570789 -69.6570654370379
 2590000000 -0.155247668026379 -69.9222598685158
 2600000000 -0.155565194031185 -70.1874371742014
 2610000000 -0.155880554723348 -70.4525970058322
 2620000000 -0.15619366377792 -70.7177390486239
 2630000000 -0.156504438188718 -70.9828630189953
 2640000000 -0.156812798067784 -71.2479686624824
 2650000000 -0.15711866646064 -71.513055751826
 2660000000 -0.157421969176091 -71.7781240852151
 2670000000 -0.157722634629185 -72.0431734846714
 2680000000 -0.158020593696117 -72.3082037945613
 2690000000 -0.158315779580226 -72.5732148802248
 2700000000 -0.158608127687858 -72.8382066267094
 2710000000 -0.158897575513522 -73.1031789376005
 2720000000 -0.159184062533358 -73.368131733939
 2730000000 -0.159467530106346 -73.6330649532193
 2740000000 -0.159747921382575 -73.8979785484605
 2750000000 -0.160025181217928 -74.1628724873431
 2760000000 -0.160299256094886 -74.4277467514085
 2770000000 -0.160570094048617 -74.6926013353134
 2780000000 -0.16083764459836 -74.9574362461361
 2790000000 -0.161101858683237 -75.2222515027298
 2800000000 -0.16136268860256 -75.4870471351196
 2810000000 -0.161620087960009 -75.7518231839391
 2820000000 -0.161874011611521 -76.0165796999044
 2830000000 -0.162124415616558 -76.2813167433211
 2840000000 -0.162371257192601 -76.5460343836234
 2850000000 -0.162614494672414 -76.8107326989421
 2860000000 -0.162854087464206 -77.0754117756989
 2870000000 -0.163089996014124 -77.3400717082261
 2880000000 -0.163322181771228 -77.6047125984082
 2890000000 -0.163550607154522 -77.8693345553461
 2900000000 -0.163775235522067 -78.1339376950399
 2910000000 -0.163996031141973 -78.3985221400906
 2920000000 -0.164212959165089 -78.6630880194187
 2930000000 -0.164425985599412 -78.927635467998
 2940000000 -0.164635077285862 -79.1921646266056
 2950000000 -0.164840201875686 -79.4566756415839
 2960000000 -0.165041327808999 -79.7211686646162
 2970000000 -0.165238424294665 -79.9856438525144
 2980000000 -0.165431461291298 -80.2501013670175
 2990000000 -0.165620409489328 -80.5145413746
 3000000000 -0.165805240294188 -80.7789640462914
 3010000000 -0.165985925810234 -81.0433695575026
 3020000000 -0.166162438825818 -81.3077580878632
 3030000000 -0.166334752798927 -81.572129821065
 3040000000 -0.166502841843848 -81.8364849447134
 3050000000 -0.166666680718356 -82.100823650186
 3060000000 -0.166826244811747 -82.3651461324973
 3070000000 -0.1669815101334 -82.6294525901707
 3080000000 -0.167132453302021 -82.893743225114
 3090000000 -0.167279051535434 -83.1580182425025
 3100000000 -0.167421282640885 -83.4222778506663
 3110000000 -0.167559125005851 -83.6865222609826
 3120000000 -0.167692557589388 -83.9507516877711
 3130000000 -0.167821559913821 -84.2149663481967
 3140000000 -0.167946112056938 -84.4791664621726
 3150000000 -0.168066194644545 -84.7433522522702
 3160000000 -0.168181788843371 -85.0075239436303
 3170000000 -0.16829287635436 -85.2716817638789
 3180000000 -0.168399439406293 -85.535825943046
 3190000000 -0.168501460749725 -85.7999567134869
 3200000000 -0.168598923651142 -86.0640743098068
 3210000000 -0.168691811887517 -86.3281789687873
 3220000000 -0.168780109741039 -86.5922709293171
 3230000000 -0.168863801994099 -86.8563504323226
 3240000000 -0.168942873924552 -87.1204177207032
 3250000000 -0.169017311301186 -87.3844730392666
 3260000000 -0.16908710037933 -87.6485166346682
 3270000000 -0.169152227896794 -87.9125487553507
 3280000000 -0.169212681069821 -88.176569651486
 3290000000 -0.169268447589398 -88.4405795749193
 3300000000 -0.169319515617601 -88.7045787791147
 3310000000 -0.169365873784138 -88.9685675191015
 3320000000 -0.169407511183025 -89.232546051423
 3330000000 -0.169444417369467 -89.4965146340866
 3340000000 -0.169476582356821 -89.7604735265142
 3350000000 -0.169503996613605 -90.0244229894952
 3360000000 -0.169526651060791 -90.2883632851397
 3370000000 -0.169544537069107 -90.5522946768337
 3380000000 -0.169557646456432 -90.8162174291941
 3390000000 -0.169565971485359 -91.0801318080265
 3400000000 -0.169569504860779 -91.3440380802822
 3410000000 -0.169568239727614 -91.6079365140176
 3420000000 -0.169562169668602 -91.8718273783534
 3430000000 -0.169551288702179 -92.1357109434352
 3440000000 -0.169535591280407 -92.3995874803949
 3450000000 -0.169515072287009 -92.6634572613129
 3460000000 -0.169489727035448 -92.9273205591807
 3470000000 -0.169459551267074 -93.1911776478644
 3480000000 -0.169424541149346 -93.4550288020692
 3490000000 -0.169384693274074 -93.7188742973038
 3500000000 -0.169340004655755 -93.9827144098463
 3510000000 -0.169290472729936 -94.2465494167103
 3520000000 -0.169236095351597 -94.5103795956108
 3530000000 -0.169176870793702 -94.7742052249322
 3540000000 -0.169112797745565 -95.0380265836955
 3550000000 -0.169043875311514 -95.3018439515265
 3560000000 -0.168970103009376 -95.5656576086246
 3570000000 -0.168891480769148 -95.8294678357319
 3580000000 -0.168808008931606 -96.0932749141021
 3590000000 -0.168719688246993 -96.3570791254716
 3600000000 -0.168626519873714 -96.6208807520286
 3610000000 -0.168528505377037 -96.8846800763849
 3620000000 -0.168425646727924 -97.1484773815461
 3630000000 -0.168317946301708 -97.4122729508834
 3640000000 -0.168205406876943 -97.6760670681057
 3650000000 -0.168088031634225 -97.939860017231
 3660000000 -0.167965824154989 -98.2036520825595
 3670000000 -0.167838788420399 -98.4674435486456
 3680000000 -0.167706928810191 -98.7312347002717
 3690000000 -0.167570250101547 -98.995025822421
 3700000000 -0.167428757468002 -99.2588172002508
 3710000000 -0.167282456478345 -99.5226091190672
 3720000000 -0.16713135309553 -99.7864018642979
 3730000000 -0.166975453675606 -100.050195721468
 3740000000 -0.166814764966651 -100.313990976173
 3750000000 -0.166649294107697 -100.577787914054
 3760000000 -0.166479048627702 -100.841586820774
 3770000000 -0.166304036444455 -101.10538798199
 3780000000 -0.166124265863621 -101.369191683334
 3790000000 -0.165939745577591 -101.632998210381
 3800000000 -0.165750484664541 -101.89680784863
 3810000000 -0.165556492587333 -102.16062088348
 3820000000 -0.16535777919255 -102.424437600202
 3830000000 -0.16515435470937 -102.68825828392
 3840000000 -0.164946229748633 -102.952083219584
 3850000000 -0.164733415301748 -103.21591269195
 3860000000 -0.164515922739688 -103.479746985551
 3870000000 -0.164293763811945 -103.743586384683
 3880000000 -0.164066950645497 -104.007431173371
 3890000000 -0.16383549574378 -104.271281635355
 3900000000 -0.163599411985623 -104.535138054063
 3910000000 -0.163358712624223 -104.799000712591
 3920000000 -0.16311341128608 -105.062869893678
 3930000000 -0.162863521969964 -105.326745879683
 3940000000 -0.162609059045827 -105.590628952568
 3950000000 -0.162350037253776 -105.854519393871
 3960000000 -0.162086471702932 -106.118417484685
 3970000000 -0.161818377870453 -106.382323505638
 3980000000 -0.161545771600358 -106.646237736869
 3990000000 -0.161268669102485 -106.910160458007
 4000000000 -0.160987086951373 -107.174091948151
 4010000000 -0.160701042085165 -107.438032485848
 4020000000 -0.160410551804473 -107.701982349069
 4030000000 -0.16011563377129 -107.965941815192
 4040000000 -0.159816306007825 -108.229911160977
 4050000000 -0.159512586895361 -108.493890662548
 4060000000 -0.159204495173129 -108.75788059537
 4070000000 -0.158892049937119 -109.02188123423
 4080000000 -0.158575270638943 -109.285892853213
 4090000000 -0.158254177084599 -109.549915725685
 4100000000 -0.157928789433336 -109.813950124271
 4110000000 -0.157599128196416 -110.077996320833
 4120000000 -0.157265214235909 -110.342054586453
 4130000000 -0.156927068763482 -110.606125191408
 4140000000 -0.156584713339122 -110.870208405154
 4150000000 -0.156238169869954 -111.134304496303
 4160000000 -0.15588746060891 -111.398413732604
 4170000000 -0.155532608153507 -111.662536380923
 4180000000 -0.155173635444533 -111.926672707222
 4190000000 -0.154810565764759 -112.190822976542
 4200000000 -0.154443422737658 -112.454987452979
 4210000000 -0.154072230326036 -112.719166399666
 4220000000 -0.153697012830719 -112.983360078755
 4230000000 -0.153317794889198 -113.247568751396
 4240000000 -0.152934601474274 -113.511792677715
 4250000000 -0.152547457892704 -113.7760321168
 4260000000 -0.152156389783763 -114.040287326676
 4270000000 -0.151761423117877 -114.304558564289
 4280000000 -0.151362584195199 -114.568846085485
 4290000000 -0.150959899644155 -114.833150144994
 4300000000 -0.150553396420066 -115.097470996405
 4310000000 -0.150143101803589 -115.361808892152
 4320000000 -0.149729043399365 -115.626164083493
 4330000000 -0.149311249134383 -115.890536820491
 4340000000 -0.148889747256632 -116.154927351996
 4350000000 -0.148464566333472 -116.419335925625
 4360000000 -0.148035735250144 -116.683762787742
 4370000000 -0.147603283208236 -116.948208183445
 4380000000 -0.14716723972408 -117.212672356539
 4390000000 -0.146727634627213 -117.477155549525
 4400000000 -0.146284498058775 -117.741658003576
 4410000000 -0.145837860469892 -118.006179958521
 4420000000 -0.145387752620033 -118.270721652828
 4430000000 -0.144934205575424 -118.535283323583
 4440000000 -0.144477250707357 -118.799865206471
 4450000000 -0.144016919690524 -119.064467535763
 4460000000 -0.143553244501305 -119.32909054429
 4470000000 -0.143086257416136 -119.593734463433
 4480000000 -0.142615991009735 -119.8583995231
 4490000000 -0.142142478153348 -120.123085951708
 4500000000 -0.14166575201308 -120.387793976168
 4510000000 -0.141185846048048 -120.652523821865
 4520000000 -0.140702794008643 -120.91727571264
 4530000000 -0.140216629934703 -121.182049870775
 4540000000 -0.139727388153747 -121.44684651697
 4550000000 -0.139235103279066 -121.711665870332
 4560000000 -0.138739810207945 -121.976508148354
 4570000000 -0.138241544119775 -122.241373566895
 4580000000 -0.13774034047415 -122.506262340169
 4590000000 -0.13723623500899 -122.771174680723
 4600000000 -0.136729263738631 -123.03611079942
 4610000000 -0.136219462951888 -123.301070905423
 4620000000 -0.135706869210094 -123.566055206178
 4630000000 -0.135191519345153 -123.831063907397
 4640000000 -0.134673450457566 -124.09609721304
 4650000000 -0.134152699914376 -124.361155325299
 4660000000 -0.133629305347249 -124.62623844458
 4670000000 -0.133103304650351 -124.891346769488
 4680000000 -0.132574735978331 -125.15648049681
 4690000000 -0.132043637744286 -125.421639821495
 4700000000 -0.131510048617624 -125.686824936643
 4710000000 -0.130974007522009 -125.952036033485
 4720000000 -0.130435553633208 -126.217273301367
 4730000000 -0.129894726376971 -126.482536927733
 4740000000 -0.129351565426893 -126.747827098111
 4750000000 -0.128806110702217 -127.013143996096
 4760000000 -0.128258402365702 -127.27848780333
 4770000000 -0.127708480821307 -127.543858699494
 4780000000 -0.127156386712112 -127.809256862283
 4790000000 -0.12660216091798 -128.074682467397
 4800000000 -0.126045844553337 -128.340135688523
 4810000000 -0.125487478964903 -128.605616697316
 4820000000 -0.124927105729387 -128.871125663389
 4830000000 -0.124364766651206 -129.136662754293
 4840000000 -0.123800503760127 -129.402228135504
 4850000000 -0.123234359308952 -129.667821970405
 4860000000 -0.12266637577116 -129.933444420275
 4870000000 -0.122096595838491 -130.199095644269
 4880000000 -0.121525062418617 -130.464775799406
 4890000000 -0.120951818632696 -130.73048504055
 4900000000 -0.120376907812921 -130.996223520402
 4910000000 -0.119800373500145 -131.261991389477
 4920000000 -0.119222259441327 -131.527788796095
 4930000000 -0.118642609587126 -131.793615886364
 4940000000 -0.118061468089403 -132.059472804165
 4950000000 -0.117478879298647 -132.325359691137
 4960000000 -0.11689488776149 -132.591276686666
 4970000000 -0.116309538218184 -132.857223927865
 4980000000 -0.115722875599981 -133.123201549564
 4990000000 -0.115134945026558 -133.389209684294
 5000000000 -0.114545791803451 -133.655248462274
 5010000000 -0.113955461419421 -133.921318011395
 5020000000 -0.113363999543827 -134.187418457208
 5030000000 -0.112771452023961 -134.453549922908
 5040000000 -0.11217786488239 -134.719712529324
 5050000000 -0.111583284314271 -134.985906394899
 5060000000 -0.110987756684659 -135.252131635685
 5070000000 -0.110391328525772 -135.518388365321
 5080000000 -0.109794046534279 -135.784676695024
 5090000000 -0.109195957568507 -136.050996733575
 5100000000 -0.108597108645708 -136.317348587308
 5110000000 -0.107997546939288 -136.583732360091
 5120000000 -0.107397319775962 -136.850148153319
 5130000000 -0.106796474632956 -137.116596065897
 5140000000 -0.106195059135154 -137.383076194232
 5150000000 -0.105593121052294 -137.649588632214
 5160000000 -0.104990708296067 -137.916133471208
 5170000000 -0.104387868917203 -138.182710800039
 5180000000 -0.10378465110262 -138.449320704981
 5190000000 -0.103181103172478 -138.715963269746
 5200000000 -0.10257727357726 -138.982638575467
 5210000000 -0.101973210894821 -139.249346700693
 5220000000 -0.101368963827358 -139.516087721368
 5230000000 -0.100764581198575 -139.782861710829
 5240000000 -0.100160111950528 -140.049668739785
 5250000000 -0.0995556051406551 -140.316508876314
 5260000000 -0.0989511099388141 -140.583382185844
 5270000000 -0.0983466756241526 -140.850288731145
 5280000000 -0.0977423515820953 -141.117228572319
 5290000000 -0.0971381873011986 -141.384201766785
 5300000000 -0.0965342323701654 -141.651208369272
 5310000000 -0.0959305364746035 -141.918248431804
 5320000000 -0.0953271493940215 -142.185322003692
 5330000000 -0.0947241209985816 -142.452429131522
 5340000000 -0.0941215012460232 -142.719569859146
 5350000000 -0.0935193401784225 -142.986744227667
 5360000000 -0.0929176879190702 -143.253952275435
 5370000000 -0.092316594669212 -143.521194038031
 5380000000 -0.0917161107048532 -143.78846954826
 5390000000 -0.0911162863735175 -144.055778836139
 5400000000 -0.0905171720910129 -144.32312192889
 5410000000 -0.0899188183381108 -144.590498850927
 5420000000 -0.0893212756573523 -144.857909623846
 5430000000 -0.0887245946496845 -145.12535426642
 5440000000 -0.0881288259711924 -145.392832794582
 5450000000 -0.087534020329715 -145.660345221425
 5460000000 -0.0869402284815644 -145.927891557184
 5470000000 -0.0863475012281514 -146.195471809232
 5480000000 -0.0857558894126029 -146.463085982068
 5490000000 -0.085165443916399 -146.730734077313
 5500000000 -0.0845762156559484 -146.998416093695
 5510000000 -0.0839882555792166 -147.266132027044
 5520000000 -0.0834016146622391 -147.533881870283
 5530000000 -0.0828163439057147 -147.801665613418
 5540000000 -0.0822324943315794 -148.069483243535
 5550000000 -0.0816501169794335 -148.337334744784
 5560000000 -0.0810692629031923 -148.605220098375
 5570000000 -0.0804899831674686 -148.873139282574
 5580000000 -0.0799123288441538 -149.141092272687
 5590000000 -0.0793363510088316 -149.40907904106
 5600000000 -0.0787621007372122 -149.677099557065
 5610000000 -0.0781896291016952 -149.945153787099
 5620000000 -0.0776189871676491 -150.213241694572
 5630000000 -0.0770502259899637 -150.481363239901
 5640000000 -0.0764833966093619 -150.749518380505
 5650000000 -0.0759185500488068 -151.017707070795
 5660000000 -0.0753557373099579 -151.285929262171
 5670000000 -0.0747950093694354 -151.554184903012
 5680000000 -0.0742364171751856 -151.822473938672
 5690000000 -0.0736800116428814 -152.09079631147
 5700000000 -0.0731258436522156 -152.35915196069
 5710000000 -0.0725739640431469 -152.627540822569
 5720000000 -0.0720244236122881 -152.895962830295
 5730000000 -0.0714772731091764 -153.164417913997
 5740000000 -0.0709325632324902 -153.432906000746
 5750000000 -0.070390344626385 -153.701427014541
 5760000000 -0.0698506678766296 -153.969980876312
 5770000000 -0.0693135835069701 -154.238567503909
 5780000000 -0.0687791419752567 -154.507186812098
 5790000000 -0.0682473936697117 -154.77583871256