# Hz S DB R 50
!Touchstone multiport model file <C:\work\PySI\TestSignalIntegrity\OysterSimulation\ResampledSimbeor\WeinschelLoad.s1p>
!Created on 22 Aug 18, at 17:55:45.
!Created with Simbeor THz 2018.01(64bit) of Simberian Inc. built on Jul 20 2018

!Output from MultiportParameters of Simbeor.
!Multiport parameters: DataOrigin=Simulation DataOriginName="Project(1).WeinschelLoad_resampled.LNS"
!RESAMPLED_RCM: Max_RMS_Error=0.0203475; FrqLow=0; FrqHigh=4e+10; MaxTimeResolution=1.25e-11; PassivityState=1; ReciprocityState=1; DataSource="p³HÀn"
!RATIONAL COMPACTOR: Precision: Normal; Extract Delay: ON; Extrapolate to DC: ON; Extrapolate to Infinity: OFF; Enforce Passivity: ON; Enforce Reciprocity: ON; Band Limit Factor: 1; Auto-Adjust Config: OFF

!Uncomment the following lines with keywords in square brakets to support IBIS forum specification 2.0.
![Version] 2.0 !This line should be the first in file, preceeding the line starting with #.
![Number of Ports] 1
![Number of Frequencies] 8001
![Reference] 50

!!!!Multiport descriptor profile: InputCount=1 TotalPortCount=1
!DescriptorOutline={DescriptorType=SMatrix InputSpace=Terminal NormalizationType=CommonZo NormalizationCommonZo=50 Ohm OutputFormat=DBMagnitudeAngle}
!InputProfile={Name="IO1" IsTLineInput=False InputNumber=1 PortCount=1 FirstPortNumber=1 InputSpace=Terminal BlockType=SBlock NormalizationType=CommonZo Zo=50}

!!!Global port number to input_name/local_port_number correspondence:
!Port 1 -> "IO1"/local_port_1 (terminal)
!!!!End of descriptor profile.

!Frequency Hz 20.0*log(|S[1,1]|) arg(S[1,1])
 0 -44.3704008587716 180
 10000000 -44.36971099236 -179.884755224625
 20000000 -44.367642972715 -179.769934776543
 30000000 -44.364201532512 -179.655961799116
 40000000 -44.3593945392853 -179.543257074425
 50000000 -44.3532329652102 -179.432237859017
 60000000 -44.3457308451428 -179.323316739087
 70000000 -44.3369052232467 -179.216900511261
 80000000 -44.3267760886317 -179.113389094797
 90000000 -44.3153663005071 -179.013174480732
 100000000 -44.3027015034229 -178.916639723048
 110000000 -44.2888100332372 -178.824157976519
 120000000 -44.2737228145103 -178.736091585389
 130000000 -44.2574732500621 -178.652791226509
 140000000 -44.240097103472 -178.57459511005
 150000000 -44.2216323753196 -178.501828240317
 160000000 -44.202119173995 -178.434801738662
 170000000 -44.18159958189 -178.373812229934
 180000000 -44.1601175178027 -178.319141293373
 190000000 -44.1377185963589 -178.271054978329
 200000000 -44.1144499852412 -178.229803384709
 210000000 -44.0903602609876 -178.195620307598
 220000000 -44.0654992640901 -178.168722945071
 230000000 -44.0399179540823 -178.149311667847
 240000000 -44.0136682652624 -178.13756984909
 250000000 -43.9868029636535 -178.133663752377
 260000000 -43.9593755057548 -178.137742475604
 270000000 -43.9314398995835 -178.149937948398
 280000000 -43.9030505684587 -178.170364980436
 290000000 -43.8742622179316 -178.199121357985
 300000000 -43.8451297062086 -178.236287985843
 310000000 -43.8157079183775 -178.281929071883
 320000000 -43.7860516446863 -178.336092351335
 330000000 -43.756215463099 -178.398809348006
 340000000 -43.7262536262958 -178.470095669641
 350000000 -43.6962199532594 -178.549951334727
 360000000 -43.6661677255509 -178.638361128117
 370000000 -43.6361495883486 -178.73529498292
 380000000 -43.6062174562985 -178.840708386271
 390000000 -43.5764224242011 -178.954542806641
 400000000 -43.5468146825354 -179.076726140523
 410000000 -43.5174434378139 -179.207173176406
 420000000 -43.4883568377346 -179.345786074113
 430000000 -43.4596019010994 -179.492454857641
 440000000 -43.4312244524447 -179.647057919811
 450000000 -43.4032690613396 -179.809462537083
 460000000 -43.3757789862816 -179.979525393027
 470000000 -43.3487961231402 179.842906890981
 480000000 -43.3223609580705 179.657997219208
 490000000 -43.2965125248441 179.465917480429
 500000000 -43.2712883665164 179.266848003443
 510000000 -43.2467245013749 179.060977010409
 520000000 -43.2228553930924 178.848500069129
 530000000 -43.1997139250205 178.629619545377
 540000000 -43.1773313785543 178.404544056329
 550000000 -43.1557374154977 178.173487926136
 560000000 -43.1349600643575 177.936670644658
 570000000 -43.115025710498 177.694316330362
 580000000 -43.0959590900733 177.446653198372
 590000000 -43.0777832876645 177.193913034649
 600000000 -43.0605197375353 176.936330677267
 610000000 -43.0441882284232 176.674143505737
 620000000 -43.0288069117696 176.407590939321
 630000000 -43.0143923132933 176.136913945256
 640000000 -43.0009593478054 175.862354557801
 650000000 -42.988521337152 175.584155408974
 660000000 -42.9770900311705 175.302559271851
 670000000 -42.966675631537 175.017808617242
 680000000 -42.9572868183716 174.730145184521
 690000000 -42.9489307794671 174.439809567384
 700000000 -42.9416132419987 174.147040815201
 710000000 -42.9353385065633 173.852076050635
 720000000 -42.9301094833951 173.555150104109
 730000000 -42.9259277305969 173.256495165664
 740000000 -42.9227934942241 172.956340454663
 750000000 -42.920705750051 172.654911907761
 760000000 -42.9196622468508 172.35243188546
 770000000 -42.9196595510136 172.04911889752
 780000000 -42.9206930923327 171.745187347406
 790000000 -42.922757210777 171.440847295896
 800000000 -42.9258452040839 171.136304243872
 810000000 -42.9299493759942 170.831758934278
 820000000 -42.9350610849613 170.527407173128
 830000000 -42.9411707931679 170.223439669381
 840000000 -42.9482681156867 169.920041893451
 850000000 -42.95634186963 169.617393954023
 860000000 -42.9653801231304 169.31567049282
 870000000 -42.9753702440156 169.015040596861
 880000000 -42.9862989480307 168.715667727751
 890000000 -42.9981523464818 168.41770966745
 900000000 -43.0109159931753 168.121318479942
 910000000 -43.0245749305398 167.826640488189
 920000000 -43.0391137348221 167.533816265706
 930000000 -43.0545165602646 167.242980642071
 940000000 -43.0707671821676 166.954262721683
 950000000 -43.0878490387666 166.667785914997
 960000000 -43.1057452718472 166.383667981539
 970000000 -43.124438766039 166.102021083912
 980000000 -43.1439121867372 165.822951852057
 990000000 -43.1641480166032 165.546561457009
 1000000000 -43.185128590616 165.27294569338
 1010000000 -43.2068361296384 165.002195069846
 1020000000 -43.2292527724848 164.734394906885
 1030000000 -43.2523606064739 164.469625441052
 1040000000 -43.2761416964644 164.207961935095
 1050000000 -43.3005781123694 163.94947479322
 1060000000 -43.3256519551634 163.694229680848
 1070000000 -43.351345381387 163.442287648237
 1080000000 -43.3776406261733 163.193705257347
 1090000000 -43.4045200248159 162.948534711379
 1100000000 -43.4319660329045 162.70682398642
 1110000000 -43.4599612450598 162.46861696469
 1120000000 -43.4884884123037 162.233953568876
 1130000000 -43.5175304580963 162.002869897109
 1140000000 -43.5470704930863 161.77539835813
 1150000000 -43.5770918286084 161.551567806265
 1160000000 -43.6075779889808 161.331403675812
 1170000000 -43.6385127226376 161.114928114512
 1180000000 -43.6698800121493 160.902160115785
 1190000000 -43.701664083174 160.693115649436
 1200000000 -43.7338494123904 160.48780779058
 1210000000 -43.7664207344546 160.286246846542
 1220000000 -43.7993630480347 160.088440481533
 1230000000 -43.832661620962 159.894393838909
 1240000000 -43.8663019945562 159.704109660849
 1250000000 -43.9002699871591 159.517588405322
 1260000000 -43.934551696932 159.334828360203
 1270000000 -43.9691335039547 159.15582575446
 1280000000 -44.0040020716722 158.98057486631
 1290000000 -44.0391443477303 158.809068128293
 1300000000 -44.0745475642429 158.641296229194
 1310000000 -44.1101992375271 158.4772482128
 1320000000 -44.1460871673484 158.316911573452
 1330000000 -44.1821994357084 158.160272348395
 1340000000 -44.2185244052161 158.007315206915
 1350000000 -44.2550507170712 157.858023536277
 1360000000 -44.2917672886936 157.712379524509
 1370000000 -44.3286633110329 157.570364240011
 1380000000 -44.3657282455838 157.43195770808
 1390000000 -44.4029518211356 157.297138984367
 1400000000 -44.4403240302868 157.165886225306
 1410000000 -44.4778351257414 157.038176755603
 1420000000 -44.515475616422 156.913987132811
 1430000000 -44.5532362634108 156.793293209078
 1440000000 -44.5911080757478 156.67607019012
 1450000000 -44.629082306102 156.562292691491
 1460000000 -44.6671504463352 156.451934792234
 1470000000 -44.7053042229745 156.344970085974
 1480000000 -44.7435355926133 156.241371729517
 1490000000 -44.7818367372512 156.141112489067
 1500000000 -44.8202000595884 156.0441647841
 1510000000 -44.8586181782929 155.950500728981
 1520000000 -44.8970839232404 155.860092172422
 1530000000 -44.9355903307522 155.772910734827
 1540000000 -44.9741306388308 155.688927843617
 1550000000 -45.0126982824064 155.608114766605
 1560000000 -45.0512868886056 155.530442643495
 1570000000 -45.0898902720432 155.455882515582
 1580000000 -45.1285024301517 155.384405353712
 1590000000 -45.1671175385502 155.315982084587
 1600000000 -45.2057299464602 155.250583615477
 1610000000 -45.2443341721736 155.1881808574
 1620000000 -45.2829248985763 155.128744746849
 1630000000 -45.3214969687348 155.072246266112
 1640000000 -45.360045381544 155.01865646227
 1650000000 -45.398565287447 154.967946464902
 1660000000 -45.4370519842218 154.920087502592
 1670000000 -45.4755009128426 154.875050918259
 1680000000 -45.5139076534164 154.832808183392
 1690000000 -45.5522679211964 154.793330911224
 1700000000 -45.5905775626733 154.756590868907
 1710000000 -45.6288325517452 154.72255998874
 1720000000 -45.6670289859712 154.691210378474
 1730000000 -45.7051630829018 154.662514330775
 1740000000 -45.743231176492 154.636444331862
 1750000000 -45.7812297135987 154.612973069367
 1760000000 -45.8191552505555 154.592073439468
 1770000000 -45.8570044498313 154.573718553327
 1780000000 -45.8947740767694 154.557881742863
 1790000000 -45.9324609964079 154.544536565911
 1800000000 -45.9700621703796 154.533656810787
 1810000000 -46.0075746538905 154.525216500301
 1820000000 -46.0449955927794 154.519189895245
 1830000000 -46.0823222206515 154.515551497391
 1840000000 -46.1195518560927 154.514276052013
 1850000000 -46.1566818999566 154.515338549986
 1860000000 -46.1937098327277 154.518714229457
 1870000000 -46.230633211957 154.524378577142
 1880000000 -46.2674496697708 154.532307329253
 1890000000 -46.3041569104505 154.542476472081
 1900000000 -46.3407527080801 154.554862242269
 1910000000 -46.3772349042656 154.569441126778
 1920000000 -46.4136014059181 154.586189862572
 1930000000 -46.4498501831044 154.605085436053
 1940000000 -46.485979266963 154.626105082235
 1950000000 -46.5219867476787 154.649226283713
 1960000000 -46.5578707725255 154.674426769399
 1970000000 -46.5936295439631 154.701684513078
 1980000000 -46.6292613177972 154.730977731771
 1990000000 -46.6647644013943 154.762284883944
 2000000000 -46.7001371519544 154.795584667546
 2010000000 -46.7353779748379 154.830856017913
 2020000000 -46.7704853219458 154.86807810554
 2030000000 -46.8054576901509 154.907230333735
 2040000000 -46.8402936197845 154.948292336146
 2050000000 -46.8749916931653 154.991243974217
 2060000000 -46.9095505331832 155.036065334526
 2070000000 -46.9439688019266 155.082736726054
 2080000000 -46.9782451993562 155.131238677374
 2090000000 -47.012378462023 155.181551933783
 2100000000 -47.0463673618319 155.233657454359
 2110000000 -47.0802107048427 155.287536408988
 2120000000 -47.1139073301185 155.343170175316
 2130000000 -47.1474561086083 155.400540335694
 2140000000 -47.180855942071 155.459628674066
 2150000000 -47.2141057620376 155.52041717284
 2160000000 -47.2472045288097 155.582888009726
 2170000000 -47.2801512304907 155.647023554577
 2180000000 -47.312944882057 155.712806366191
 2190000000 -47.345584524459 155.780219189116
 2200000000 -47.378069223754 155.849244950458
 2210000000 -47.4103980702757 155.919866756671
 2220000000 -47.4425701778277 155.992067890361
 2230000000 -47.4745846829127 156.065831807092
 2240000000 -47.5064407439886 156.141142132198
 2250000000 -47.5381375407506 156.217982657613
 2260000000 -47.5696742734445 156.29633733871
 2270000000 -47.6010501622035 156.376190291158
 2280000000 -47.632264446413 156.457525787799
 2290000000 -47.663316384098 156.540328255544
 2300000000 -47.6942052513349 156.624582272305
 2310000000 -47.7249303416908 156.710272563928
 2320000000 -47.7554909656802 156.797384001175
 2330000000 -47.7858864502456 156.885901596729
 2340000000 -47.8161161382614 156.975810502227
 2350000000 -47.8461793880559 157.067096005323
 2360000000 -47.8760755729554 157.159743526792
 2370000000 -47.9058040808453 157.253738617661
 2380000000 -47.9353643137535 157.349066956378
 2390000000 -47.9647556874497 157.445714346019
 2400000000 -47.9939776310603 157.543666711537
 2410000000 -48.0230295867065 157.642910097034
 2420000000 -48.0519110091549 157.743430663089
 2430000000 -48.0806213654821 157.845214684121
 2440000000 -48.1091601347596 157.948248545788
 2450000000 -48.137526807753 158.052518742428
 2460000000 -48.1657208866301 158.158011874554
 2470000000 -48.1937418846928 158.264714646369
 2480000000 -48.2215893261124 158.372613863346
 2490000000 -48.2492627456857 158.481696429838
 2500000000 -48.2767616886006 158.591949346733
 2510000000 -48.3040857102135 158.703359709157
 2520000000 -48.3312343758418 158.815914704215
 2530000000 -48.3582072605636 158.929601608781
 2540000000 -48.3850039490295 159.044407787339
 2550000000 -48.4116240352913 159.160320689841
 2560000000 -48.4380671226297 159.277327849647
 2570000000 -48.4643328234045 159.395416881478
 2580000000 -48.490420758902 159.514575479438
 2590000000 -48.5163305592035 159.634791415057
 2600000000 -48.5420618630538 159.7560525354
 2610000000 -48.5676143177434 159.878346761206
 2620000000 -48.5929875789962 160.00166208508
 2630000000 -48.618181310868 160.12598656972
 2640000000 -48.6431951856493 160.251308346201
 2650000000 -48.6680288837804 160.377615612288
 2660000000 -48.6926820937648 160.504896630812
 2670000000 -48.7171545121036 160.633139728061
 2680000000 -48.7414458432202 160.762333292251
 2690000000 -48.7655557994035 160.89246577201
 2700000000 -48.7894841007524 161.023525674915
 2710000000 -48.8132304751256 161.15550156608
 2720000000 -48.8367946580998 161.288382066773
 2730000000 -48.8601763929283 161.422155853085
 2740000000 -48.8833754305107 161.556811654639
 2750000000 -48.9063915293628 161.692338253335
 2760000000 -48.9292244555945 161.828724482139
 2770000000 -48.9518739828861 161.965959223927
 2780000000 -48.9743398924801 162.104031410341
 2790000000 -48.9966219731624 162.242930020713
 2800000000 -49.0187200212616 162.382644081009
 2810000000 -49.0406338406394 162.523162662831
 2820000000 -49.0623632426934 162.66447488244
 2830000000 -49.0839080463591 162.80656989983
 2840000000 -49.1052680781149 162.949436917835
 2850000000 -49.1264431719913 163.093065181278
 2860000000 -49.1474331695811 163.237443976151
 2870000000 -49.1682379200533 163.382562628843
 2880000000 -49.1888572801695 163.528410505391
 2890000000 -49.209291114302 163.674977010777
 2900000000 -49.2295392944508 163.822251588264
 2910000000 -49.2496017002698 163.970223718753
 2920000000 -49.2694782190875 164.118882920187
 2930000000 -49.2891687459312 164.268218746991
 2940000000 -49.3086731835557 164.418220789533
 2950000000 -49.3279914424681 164.568878673634
 2960000000 -49.3471234409579 164.720182060101
 2970000000 -49.3660691051267 164.872120644291
 2980000000 -49.384828368916 165.024684155723
 2990000000 -49.4034011741412 165.177862357696
 3000000000 -49.4217874705215 165.331645046961
 3010000000 -49.4399872157097 165.486022053416
 3020000000 -49.4580003753281 165.64098323982
 3030000000 -49.4758269229991 165.796518501554
 3040000000 -49.4934668403762 165.952617766403
 3050000000 -49.5109201171778 166.10927099436
 3060000000 -49.5281867512188 166.266468177473
 3070000000 -49.5452667484416 166.424199339703
 3080000000 -49.5621601229512 166.582454536816
 3090000000 -49.5788668970402 166.741223856309
 3100000000 -49.5953871012241 166.900497417347
 3110000000 -49.6117207742691 167.060265370734
 3120000000 -49.6278679632205 167.220517898908
 3130000000 -49.6438287234328 167.381245215957
 3140000000 -49.6596031185952 167.542437567657
 3150000000 -49.6751912207583 167.704085231543
 3160000000 -49.6905931103593 167.866178516989
 3170000000 -49.7058088762457 168.028707765315
 3180000000 -49.7208386156979 168.191663349919
 3190000000 -49.735682434452 168.355035676423
 3200000000 -49.7503404467169 168.518815182844
 3210000000 -49.7648127751964 168.682992339777
 3220000000 -49.7790995511027 168.847557650607
 3230000000 -49.793200914173 169.012501651735
 3240000000 -49.8071170126859 169.177814912811
 3250000000 -49.82084800347 169.343488036999
 3260000000 -49.8343940519158 169.509511661255
 3270000000 -49.8477553319836 169.675876456611
 3280000000 -49.860932026211 169.842573128487
 3290000000 -49.8739243257179 170.009592417006
 3300000000 -49.8867324302077 170.176925097333
 3310000000 -49.899356547971 170.344561980018
 3320000000 -49.9117968958808 170.512493911361
 3330000000 -49.9240536993936 170.680711773779
 3340000000 -49.9361271925404 170.849206486196
 3350000000 -49.9480176179228 171.017969004431
 3360000000 -49.9597252266986 171.186990321609
 3370000000 -49.9712502785766 171.35626146857
 3380000000 -49.9825930417978 171.525773514299
 3390000000 -49.9937537931215 171.695517566354
 3400000000 -50.0047328178063 171.865484771307
 3410000000 -50.0155304095899 172.035666315194
 3420000000 -50.0261468706657 172.206053423969
 3430000000 -50.0365825116599 172.376637363962
 3440000000 -50.0468376516016 172.547409442352
 3450000000 -50.0569126178932 172.718361007634
 3460000000 -50.066807746282 172.889483450095
 3470000000 -50.0765233808216 173.060768202299
 3480000000 -50.0860598738371 173.232206739569
 3490000000 -50.0954175858886 173.403790580472
 3500000000 -50.1045968857253 173.575511287314
 3510000000 -50.1135981502472 173.747360466626
 3520000000 -50.1224217644554 173.919329769661
 3530000000 -50.1310681214074 174.091410892886
 3540000000 -50.1395376221634 174.263595578478
 3550000000 -50.1478306757378 174.435875614819
 3560000000 -50.1559476990416 174.608242836985
 3570000000 -50.1638891168257 174.780689127248
 3580000000 -50.1716553616234 174.953206415557
 3590000000 -50.1792468736884 175.125786680035
 3600000000 -50.1866641009312 175.298421947464
 3610000000 -50.1939074988509 175.471104293767
 3620000000 -50.2009775304739 175.643825844492
 3630000000 -50.2078746662776 175.816578775288
 3640000000 -50.2145993841217 175.989355312376
 3650000000 -50.2211521691741 176.162147733022
 3660000000 -50.227533513834 176.334948365996
 3670000000 -50.2337439176556 176.507749592032
 3680000000 -50.2397838872658 176.680543844281
 3690000000 -50.2456539362855 176.853323608757
 3700000000 -50.2513545852442 177.026081424777
 3710000000 -50.2568863614936 177.198809885393
 3720000000 -50.2622497991226 177.37150163782
 3730000000 -50.2674454388671 177.544149383851
 3740000000 -50.2724738280194 177.716745880271
 3750000000 -50.2773355203354 177.889283939261
 3760000000 -50.2820310759426 178.061756428784
 3770000000 -50.2865610612403 178.23415627298
 3780000000 -50.2909260488072 178.406476452536
 3790000000 -50.2951266172986 178.578710005058
 3800000000 -50.2991633513495 178.750850025421
 3810000000 -50.3030368414708 178.922889666127
 3820000000 -50.306747683946 179.094822137633
 3830000000 -50.3102964807301 179.266640708686
 3840000000 -50.31368383934 179.438338706635
 3850000000 -50.3169103727491 179.609909517743
 3860000000 -50.3199766992819 179.781346587474
 3870000000 -50.3228834424985 179.952643420788
 3880000000 -50.3256312310923 -179.876206417595
 3890000000 -50.328220698771 -179.705209302926
 3900000000 -50.3306524841498 -179.534371550181
 3910000000 -50.3329272306362 -179.363699413821
 3920000000 -50.3350455863133 -179.193199087563
 3930000000 -50.3370082038296 -179.022876704167
 3940000000 -50.3388157402785 -178.852738335235
 3950000000 -50.3404688570852 -178.682789991014
 3960000000 -50.3419682198864 -178.513037620225
 3970000000 -50.3433144984138 -178.343487109891
 3980000000 -50.3445083663753 -178.174144285184
 3990000000 -50.3455505013355 -178.005014909285
 4000000000 -50.3464415845966 -177.836104683256
 4010000000 -50.3471823010777 -177.667419245921
 4020000000 -50.3477733391914 -177.498964173764
 4030000000 -50.348215390729 -177.330744980835
 4040000000 -50.3485091507337 -177.162767118676
 4050000000 -50.34865531738 -176.995035976251
 4060000000 -50.3486545918536 -176.827556879895
 4070000000 -50.348507678227 -176.660335093273
 4080000000 -50.3482152833393 -176.493375817352
 4090000000 -50.3477781166723 -176.326684190384
 4100000000 -50.3471968902277 -176.160265287905
 4110000000 -50.3464723184072 -175.994124122743
 4120000000 -50.345605117886 -175.828265645044
 4130000000 -50.3445960074941 -175.662694742301
 4140000000 -50.3434457080927 -175.497416239405
 4150000000 -50.3421549424498 -175.332434898702
 4160000000 -50.3407244351211 -175.167755420066
 4170000000 -50.3391549123282 -175.003382440982
 4180000000 -50.3374471018343 -174.839320536641
 4190000000 -50.335601732826 -174.675574220049
 4200000000 -50.3336195357903 -174.512147942145
 4210000000 -50.3315012423945 -174.349046091933
 4220000000 -50.3292475853672 -174.186272996624
 4230000000 -50.326859298376 -174.023832921792
 4240000000 -50.3243371159123 -173.861730071538
 4250000000 -50.3216817731676 -173.699968588668
 4260000000 -50.3188940059189 -173.538552554883
 4270000000 -50.31597455041 -173.377485990973
 4280000000 -50.3129241432321 -173.216772857034
 4290000000 -50.3097435212118 -173.056417052682
 4300000000 -50.3064334212912 -172.896422417291
 4310000000 -50.3029945804148 -172.73679273023
 4320000000 -50.2994277354142 -172.577531711118
 4330000000 -50.2957336228946 -172.418643020083
 4340000000 -50.2919129791204 -172.26013025804
 4350000000 -50.287966539906 -172.101996966968
 4360000000 -50.2838950405018 -171.944246630203
 4370000000 -50.2796992154827 -171.786882672741
 4380000000 -50.2753797986408 -171.629908461548
 4390000000 -50.2709375228753 -171.473327305877
 4400000000 -50.2663731200834 -171.317142457601
 4410000000 -50.2616873210539 -171.161357111548
 4420000000 -50.256880855361 -171.005974405847
 4430000000 -50.2519544512572 -170.850997422284
 4440000000 -50.246908835571 -170.696429186665
 4450000000 -50.2417447336013 -170.542272669186
 4460000000 -50.2364628690161 -170.388530784809
 4470000000 -50.2310639637503 -170.235206393654
 4480000000 -50.2255487379022 -170.082302301396
 4490000000 -50.2199179096398 -169.929821259652
 4500000000 -50.2141721950957 -169.777765966408
 4510000000 -50.2083123082719 -169.626139066423
 4520000000 -50.2023389609441 -169.474943151654
 4530000000 -50.1962528625635 -169.32418076169
 4540000000 -50.1900547201629 -169.173854384183
 4550000000 -50.1837452382639 -169.02396645529
 4560000000 -50.1773251187814 -168.874519360127
 4570000000 -50.1707950609347 -168.725515433216
 4580000000 -50.164155761154 -168.576956958954
 4590000000 -50.1574079129933 -168.428846172067
 4600000000 -50.1505522070389 -168.281185258095
 4610000000 -50.143589330822 -168.133976353858
 4620000000 -50.1365199687356 -167.987221547941
 4630000000 -50.1293448019424 -167.840922881185
 4640000000 -50.1220645082949 -167.695082347171
 4650000000 -50.1146797622491 -167.549701892724
 4660000000 -50.1071912347832 -167.404783418406
 4670000000 -50.0995995933126 -167.260328779031
 4680000000 -50.0919055016146 -167.116339784162
 4690000000 -50.084109619742 -166.972818198636
 4700000000 -50.0762126039481 -166.829765743074
 4710000000 -50.0682151066075 -166.687184094404
 4720000000 -50.0601177761379 -166.54507488639
 4730000000 -50.0519212569264 -166.40343971015
 4740000000 -50.0436261892509 -166.2622801147
 4750000000 -50.0352332092074 -166.121597607479
 4760000000 -50.026742948636 -165.981393654892
 4770000000 -50.0181560350488 -165.84166968285
 4780000000 -50.0094730915555 -165.702427077314
 4790000000 -50.0006947367958 -165.56366718484
 4800000000 -49.9918215848661 -165.42539131313
 4810000000 -49.9828542452512 -165.287600731582
 4820000000 -49.9737933227548 -165.150296671847
 4830000000 -49.9646394174337 -165.013480328381
 4840000000 -49.9553931245257 -164.877152859011
 4850000000 -49.9460550343877 -164.741315385489
 4860000000 -49.936625732428 -164.605968994057
 4870000000 -49.9271057990405 -164.471114736013
 4880000000 -49.9174958095402 -164.336753628277
 4890000000 -49.9077963340986 -164.202886653965
 4900000000 -49.8980079376826 -164.069514762947
 4910000000 -49.8881311799881 -163.936638872433
 4920000000 -49.8781666153808 -163.804259867539
 4930000000 -49.868114792832 -163.672378601863
 4940000000 -49.8579762558574 -163.540995898066
 4950000000 -49.8477515424587 -163.410112548446
 4960000000 -49.8374411850584 -163.279729315522
 4970000000 -49.8270457104459 -163.149846932609
 4980000000 -49.8165656397098 -163.020466104411
 4990000000 -49.806001488186 -162.891587507596
 5000000000 -49.7953537653944 -162.763211791385
 5010000000 -49.7846229749799 -162.635339578141
 5020000000 -49.7738096146563 -162.507971463952
 5030000000 -49.7629141761451 -162.381108019225
 5040000000 -49.7519371451183 -162.254749789278
 5050000000 -49.7408790011408 -162.128897294926
 5060000000 -49.7297402176113 -162.003551033083
 5070000000 -49.7185212617055 -161.878711477348
 5080000000 -49.7072225943157 -161.754379078612
 5090000000 -49.6958446699958 -161.630554265647
 5100000000 -49.6843879369015 -161.507237445706
 5110000000 -49.6728528367319 -161.384429005134
 5120000000 -49.6612398046726 -161.262129309957
 5130000000 -49.6495492693345 -161.140338706497
 5140000000 -49.6377816526988 -161.019057521973
 5150000000 -49.6259373700548 -160.898286065108
 5160000000 -49.6140168299424 -160.778024626744
 5170000000 -49.6020204340909 -160.658273480449
 5180000000 -49.5899485773606 -160.539032883132
 5190000000 -49.5778016476821 -160.42030307566
 5200000000 -49.5655800259936 -160.302084283475
 5210000000 -49.5532840861802 -160.184376717221
 5220000000 -49.5409141950127 -160.067180573357
 5230000000 -49.5284707120844 -159.95049603479
 5240000000 -49.5159539897459 -159.834323271504
 5250000000 -49.5033643730425 -159.71866244119
 5260000000 -49.4907021996499 -159.603513689881
 5270000000 -49.4779677998051 -159.488877152595
 5280000000 -49.465161496242 -159.374752953973
 5290000000 -49.4522836041235 -159.261141208922
 5300000000 -49.4393344309717 -159.148042023274
 5310000000 -49.4263142765977 -159.035455494433
 5320000000 -49.413223433031 -158.923381712034
 5330000000 -49.4000621844473 -158.811820758611
 5340000000 -49.3868308070932 -158.70077271026
 5350000000 -49.3735295692128 -158.590237637316
 5360000000 -49.3601587309707 -158.480215605026
 5370000000 -49.3467185443725 -158.370706674242
 5380000000 -49.3332092531874 -158.261710902107
 5390000000 -49.3196310928651 -158.153228342749
 5400000000 -49.3059842904534 -158.04525904799
 5410000000 -49.2922690645127 -157.937803068056
 5420000000 -49.2784856250299 -157.830860452293
 5430000000 -49.2646341733301 -157.724431249891
 5440000000 -49.2507149019838 -157.618515510626
 5450000000 -49.2367279947144 -157.513113285599
 5460000000 -49.2226736263055 -157.408224627981
 5470000000 -49.2085519624986 -157.303849593789
 5480000000 -49.1943631598978 -157.199988242643
 5490000000 -49.1801073658624 -157.096640638562
 5500000000 -49.1657847184062 -156.993806850743
 5510000000 -49.151395346086 -156.891486954377
 5520000000 -49.1369393678921 -156.789681031462
 5530000000 -49.1224168931345 -156.68838917163
 5540000000 -49.107828021324 -156.587611472998
 5550000000 -49.0931728420552 -156.487348043014
 5560000000 -49.0784514348799 -156.387598999339
 5570000000 -49.0636638691819 -156.288364470729
 5580000000 -49.0488102040458 -156.189644597936
 5590000000 -49.0338904881222 -156.091439534638
 5600000000 -49.0189047594889 -155.993749448367
 5610000000 -49.0038530455113 -155.896574521466
 5620000000 -48.9887353626918 -155.799914952077
 5630000000 -48.9735517165233 -155.70377095512
 5640000000 -48.9583021013308 -155.608142763322
 5650000000 -48.9429865001126 -155.513030628254
 5660000000 -48.927604884376 -155.418434821394
 5670000000 -48.9121572139665 -155.324355635212
 5680000000 -48.8966434368931 -155.23079338429
 5690000000 -48.8810634891493 -155.137748406453
 5700000000 -48.8654172945245 -155.045221063946
 5710000000 -48.8497047644157 -154.95321174462
 5720000000 -48.8339257976267 -154.861720863172
 5730000000 -48.8180802801669 -154.770748862395
 5740000000 -48.802168085038 -154.680296214478
 5750000000 -48.7861890720197 -154.590363422331
 5760000000 -48.7701430874457 -154.500951020947
 5770000000 -48.754029963969 -154.412059578818
 5780000000 -48.7378495203285 -154.323689699364
 5790000000 -48.7216015610993 -154.235842022428
 5800000000 -48.7052858764402 -154.148517225803
 5810000000 -48.6889022418287 -154.061716026814
 5820000000 -48.6724504177943 -153.97543918393
 5830000000 -48.6559301496332 -153.889687498457
 5840000000 -48.6393411671244 -153.804461816248
 5850000000 -48.6226831842257 -153.719763029503
 5860000000 -48.6059558987694 -153.635592078596
 5870000000 -48.5891589921399 -153.551949953992
 5880000000 -48.5722921289453 -153.468837698204
 5890000000 -48.5553549566773 -153.386256407827
 5900000000 -48.5383471053568 -153.304207235646
 5910000000 -48.5212681871718 -153.222691392806
 5920000000 -48.5041177960975 -153.141710151073
 5930000000 -48.4868955075111 -153.061264845161
 5940000000 -48.4696008777841 -152.981356875153
 5950000000 -48.4522334438687 -152.90198770901
 5960000000 -48.4347927228647 -152.823158885168
 5970000000 -48.4172782115741 -152.744872015235
 5980000000 -48.3996893860389 -152.667128786793
 5990000000 -48.3820257010634 -152.589930966302
 6000000000 -48.3642865897188 -152.513280402121
 6010000000 -48.3464714628323 -152.437179027645
 6020000000 -48.3285797084548 -152.361628864566
 6030000000 -48.3106106913143 -152.286632026267