# Hz S MA R 50
!Touchstone multiport model file <C:\Users\Yuriy\Documents\Simbeor THz Solutions\!Getting Started 2016\Project1\Results\Project1_t-line_Simulation_same.s2p>
!Created on 04 May 18, at 06:55:32.
!Created with Simbeor THz 2017.02(64bit) of Simberian Inc. built on Dec 25 2017

!Output from MultiportParameters of Simbeor.
!Multiport parameters: DataOrigin=Simulation DataOriginName="Project1.t-line.Simulation(1)"
!LinearNetworkData: EMPTY;

!Uncomment the following lines with keywords in square brakets to support IBIS forum specification 2.0.
![Version] 2.0 !This line should be the first in file, preceeding the line starting with #.
![Number of Ports] 2
![Number of Frequencies] 10
![Two-Port Data Order] 21_12
![Reference] 50 50

!!!!Multiport descriptor profile: InputCount=2 TotalPortCount=2
!DescriptorOutline={DescriptorType=SMatrix InputSpace=Terminal NormalizationType=CommonZo NormalizationCommonZo=50 Ohm OutputFormat=MagnitudeAngle ListOfZo=(1:50)(2:25)}
!InputProfile={Name="Input1" IsTLineInput=True InputNumber=1 PortCount=1 FirstPortNumber=1 InputSpace=Terminal BlockType=SBlock NormalizationType=CommonZo Zo=50}
!InputProfile={Name="Input2" IsTLineInput=True InputNumber=2 PortCount=1 FirstPortNumber=2 InputSpace=Terminal BlockType=SBlock NormalizationType=CommonZo Zo=50}

!!!Global port number to input_name/local_port_number correspondence:
!Port 1 -> "Input1"/local_port_1 (terminal)
!Port 2 -> "Input2"/local_port_1 (terminal)
!!!!End of descriptor profile.

!Frequency Hz |S[1,1]| arg(S[1,1]) |S[2,1]| arg(S[2,1]) |S[1,2]| arg(S[1,2]) |S[2,2]| arg(S[2,2])
 1000000000 0.0211466588164729 21.3518627669015 0.985525186489281 -53.3728231922156 0.985525186489281 -53.3728231922156 0.0211466588164728 21.3518627669015
 2111111111 0.0233339499688314 -31.7214055067843 0.974308177129967 -112.149548516404 0.974308177129967 -112.149548516404 0.0233339499688312 -31.7214055067842
 3222222222 0.00406787700475455 -76.0881686106055 0.964262279534258 -170.825718293397 0.964262279534257 -170.825718293397 0.00406787700475371 -76.0881686106013
 4333333333 0.0187599575474736 31.8306913588704 0.954537096957137 130.598748082584 0.954537096957137 130.598748082584 0.0187599575474738 31.8306913588705
 5444444444 0.0233270997302103 -22.2281977169537 0.945619285381141 72.1147180788661 0.945619285381142 72.1147180788661 0.0233270997302105 -22.2281977169539
 6555555555 0.00594853159898659 -65.9433323594596 0.937495677953004 13.6642874797381 0.937495677953004 13.6642874797381 0.00594853159898665 -65.9433323594583
 7666666666 0.0170756251199606 37.3649882733108 0.929462537573054 -44.7629271381756 0.929462537573054 -44.7629271381756 0.0170756251199607 37.3649882733113
 8777777777 0.0234130046270613 -15.0618425886272 0.921797989872113 -103.135091324431 0.921797989872113 -103.135091324431 0.0234130046270616 -15.0618425886272
 9888888888 0.00785033338282043 -59.0646864695975 0.914696034358282 -161.490937100223 0.914696034358282 -161.490937100223 0.00785033338282042 -59.0646864695977
 11000000000 0.0153334243465098 41.602875018317 0.907542301831735 140.150105540204 0.907542301831735 140.150105540204 0.0153334243465097 41.6028750183168
