! Tyco Electronics Strada Whisper System
! THRU_C8C9
!! 
!! SYSTEM DESCRIPTION: Daughtercard-Connector-Backplane-Connector-Daughtercard
!! PCB DESCRIPTION: BP: 250mil, 26 lyrs, Megtron6, bottom layer route, no stub, 6-9-6mil 17" traces; DC: 150mil, 16 lyrs, Megtron6, bottom layer route, no stub, 6-9-6mil 5" traces
!! CONNECTOR DESCRIPTION: STRADA Whisper, Right Angle Receptacle to Vertical Header
!! MODEL DESCRIPTION: Tyco Electronics System 4-port S-parameter 
!! MODEL STATUS: Developmental
!! MODEL GEOMETRY: Channel Model
!! MODEL FREQUENCY RANGE: DC to 40 GHz in 10 MHz frequency steps
!! MODEL EDGE RATE LIMITATION: 12.5 ps (Using conservative 0.5/Fmax rule of thumb)
!! 
!! TIME-DOMAIN TRANSFORM CAUTIONS: 
!! 1.) Do not simulate transient edge rates faster than the number listed above.  Edge rates faster than this number 
!!     contain significant spectral content at frequencies above the model's highest frequency. 
!! 2.) Even when simulating edge rates that are slower than the number listed above, be aware that the best time 
!!     resolution possible with a direct iFFT is (1 / 2Fmax).  As a result, time resolution is typically not adequate 
!!     for most time-domain simulations unless tricks such as windowing are used to minimize leakage and aliasing. 
!! 3.) Because the model has a uniform frequency step, a direct iFFT will result in an impulse that that has a time 
!!     length given by either (1 / Fstep) or (1 / 2Fstep), depending on the transform being used.  Care has been taken 
!!     in selecting the frequency step to ensure a settled impulse response for the model.  Therefore, convolution with 
!!     the model's impulse response should present no issues.  However, if directly concatenating s-parameter models 
!!     in the frequency domain a user must either interpolate necessary interim frequencies or complete impulse response 
!!     zero-padding.  Impulse response zero-padding is more difficult, but more accurate. 
!! 
!! PORT DEFINITIONS: 
!! Port   1  ----->  Side A                     C8                    Side B  <-----  Port   2
!! Port   3  ----->  Side A                     C9                    Side B  <-----  Port   4
!! 
!!!!!!!!!!!!!!!!!!!!!!!!!!!!!!!!!!!!!!!!!!!!!!!!!!!!!!!!!!!!!!!!!!!!!!!!!!!!!!!!!!!!!!!!!!!!!!!!!!!!!!!!!!!!!!!!!!!!!!!!
!
! Created Wed Apr 27 14:10:59 2011
# hz S ma R 50
! 4 Port Network Data from SP1.SP block
! freq  magS11  angS11  magS12  angS12  magS13  angS13  magS14  angS14  
!       magS21  angS21  magS22  angS22  magS23  angS23  magS24  angS24  
!       magS31  angS31  magS32  angS32  magS33  angS33  magS34  angS34  
!       magS41  angS41  magS42  angS42  magS43  angS43  magS44  angS44  
!     
                 0      0.0298647105    1.53412579e-023        0.969532247   -4.72814286e-025      0.00346247859    1.32320367e-022      0.00337918738                180
                      0.969532247   -4.72814286e-025       0.0298647105    1.53412579e-023      0.00337918738                180      0.00346247859    1.32320367e-022
                    0.00346247859    1.32320367e-022      0.00337918738                180       0.0298907314    1.53275156e-023         0.96950784   -4.72813461e-025
                    0.00337918738                180      0.00346247859    1.32320367e-022         0.96950784   -4.72813461e-025       0.0298907314    1.53275156e-023

          10000000      0.0634715113         20.3269836        0.945085036        -18.5915202       0.0254678516         62.7594415      0.00401580612         173.299818
                      0.945085036        -18.5915202       0.0634715113         20.3269836      0.00401580612         173.299818       0.0254678516         62.7594415
                     0.0254678516         62.7594415      0.00401580612         173.299818       0.0633817992         20.3331349        0.943802167        -18.5922832
                    0.00401580612         173.299818       0.0254678516         62.7594415        0.943802167        -18.5922832       0.0633817992         20.3331349

          20000000      0.0833709215         13.4715409        0.934407386        -36.3282838       0.0472770799         49.8061013      0.00505358963         150.637506
                      0.934407386        -36.3282838       0.0833709215         13.4715409      0.00505358963         150.637506       0.0472770799         49.8061013
                     0.0472770799         49.8061013      0.00505358963         150.637506       0.0832482102          13.493771        0.933141758        -36.3256611
                    0.00505358963         150.637506       0.0472770799         49.8061013        0.933141758        -36.3256611       0.0832482102          13.493771

          30000000      0.0965664438         2.52224303        0.925976978        -53.8777354       0.0643781845          34.367765      0.00582186305         121.334771
                      0.925976978        -53.8777354       0.0965664438         2.52224303      0.00582186305         121.334771       0.0643781845          34.367765
                     0.0643781845          34.367765      0.00582186305         121.334771       0.0964174262         2.55994155        0.924727371        -53.8727406
                    0.00582186305         121.334771       0.0643781845          34.367765        0.924727371        -53.8727406       0.0964174262         2.55994155

          40000000       0.102643752        -10.1075183        0.919181083        -71.3201719       0.0753534295         18.4717214      0.00618538987         88.7854925
                      0.919181083        -71.3201719        0.102643752        -10.1075183      0.00618538987         88.7854925       0.0753534295         18.4717214
                     0.0753534295         18.4717214      0.00618538987         88.7854925        0.102474331        -10.0534045        0.917946148        -71.3130818
                    0.00618538987         88.7854925       0.0753534295         18.4717214        0.917946148        -71.3130818        0.102474331        -10.0534045

          50000000       0.101408351        -23.5401788        0.913827524        -88.7076825       0.0793350306         2.53826891      0.00612189899         53.9848567
                      0.913827524        -88.7076825        0.101408351        -23.5401788      0.00612189899         53.9848567       0.0793350306         2.53826891
                     0.0793350306         2.53826891      0.00612189899         53.9848567        0.101223383        -23.4674755        0.912606142        -88.6986157
                    0.00612189899         53.9848567       0.0793350306         2.53826891        0.912606142        -88.6986157        0.101223383        -23.4674755

          60000000      0.0930867442        -37.3129861        0.909646677        -106.083402       0.0759947225        -13.2062516      0.00567186403         16.9352125
                      0.909646677        -106.083402       0.0930867442        -37.3129861      0.00567186403         16.9352125       0.0759947225        -13.2062516
                     0.0759947225        -13.2062516      0.00567186403         16.9352125        0.092889527        -37.2174275        0.908438245        -106.072427
                    0.00567186403         16.9352125       0.0759947225        -13.2062516        0.908438245        -106.072427        0.092889527        -37.2174275

          70000000      0.0783656564        -50.9918768        0.906192202        -123.478824       0.0655966637        -28.4019733      0.00493006839        -23.0463906
                      0.906192202        -123.478824       0.0783656564        -50.9918768      0.00493006839        -23.0463906       0.0655966637        -28.4019733
                     0.0655966637        -28.4019733      0.00493006839        -23.0463906       0.0781577511        -50.8643595         0.90499683        -123.465997
                    0.00493006839        -23.0463906       0.0655966637        -28.4019733         0.90499683        -123.465997       0.0781577511        -50.8643595

          80000000      0.0584593173        -63.7412146        0.902892828        -140.907678       0.0490888099        -42.0632533      0.00405136616        -67.4188926
                      0.902892828        -140.907678       0.0584593173        -63.7412146      0.00405136616        -67.4188926       0.0490888099        -42.0632533
                     0.0490888099        -42.0632533      0.00405136616        -67.4188926       0.0582415368        -63.5578615        0.901711287        -140.893064
                    0.00405136616        -67.4188926       0.0490888099        -42.0632533        0.901711287        -140.893064       0.0582415368        -63.5578615

          90000000      0.0352741173        -72.6736314        0.899197701        -158.362543       0.0283339554        -50.0118676      0.00325907932        -118.266358
                      0.899197701        -158.362543       0.0352741173        -72.6736314      0.00325907932        -118.266358       0.0283339554        -50.0118676
                     0.0283339554        -50.0118676      0.00325907932        -118.266358       0.0350534797        -72.3405909         0.89803112        -158.346213
                    0.00325907932        -118.266358       0.0283339554        -50.0118676         0.89803112        -158.346213       0.0350534797        -72.3405909

         100000000      0.0131546196        -55.0916961        0.894754856        -175.817894        0.010114669         -10.214768      0.00280300196        -175.728548
                      0.894754856        -175.817894       0.0131546196        -55.0916961      0.00280300196        -175.728548        0.010114669         -10.214768
                      0.010114669         -10.214768      0.00280300196        -175.728548       0.0130444696        -53.7851871        0.893604268        -175.799908
                    0.00280300196        -175.728548        0.010114669         -10.214768        0.893604268        -175.799908       0.0130444696        -53.7851871

         110000000      0.0190327089         27.1600883        0.889536005         166.759878       0.0244960662         52.5720271      0.00275571344         126.281194
                      0.889536005         166.759878       0.0190327089         27.1600883      0.00275571344         126.281194       0.0244960662         52.5720271
                     0.0244960662         52.5720271      0.00275571344         126.281194       0.0193561567         27.5290586           0.888402         166.779494
                    0.00275571344         126.281194       0.0244960662         52.5720271           0.888402         166.779494       0.0193561567         27.5290586

         120000000      0.0391546732         28.4436815        0.883836699         149.399148       0.0464225157         47.5705112      0.00288229215         73.9594377
                      0.883836699         149.399148       0.0391546732         28.4436815      0.00288229215         73.9594377       0.0464225157         47.5705112
                     0.0464225157         47.5705112      0.00288229215         73.9594377       0.0395350498         28.5629878        0.882719392         149.420426
                    0.00288229215         73.9594377       0.0464225157         47.5705112        0.882719392         149.420426       0.0395350498         28.5629878

         130000000      0.0557108099         17.3645805        0.878150425         132.112398       0.0653162993         34.9140029       0.0028944348          26.929906
                      0.878150425         132.112398       0.0557108099         17.3645805       0.0028944348          26.929906       0.0653162993         34.9140029
                     0.0653162993         34.9140029       0.0028944348          26.929906       0.0561439403          17.478234        0.877049798         132.135432
                     0.0028944348          26.929906       0.0653162993         34.9140029        0.877049798         132.135432       0.0561439403          17.478234

         140000000      0.0665272075         3.78771652        0.872983735          114.89233       0.0791595286         20.4650047      0.00263660538        -17.9891498
                      0.872983735          114.89233       0.0665272075         3.78771652      0.00263660538        -17.9891498       0.0791595286         20.4650047
                     0.0791595286         20.4650047      0.00263660538        -17.9891498       0.0670202444         3.91929871        0.871900248         114.917254
                    0.00263660538        -17.9891498       0.0791595286         20.4650047        0.871900248         114.917254       0.0670202444         3.91929871

         150000000      0.0707817894        -10.5778306        0.868692288         97.7150147       0.0868387566         5.41615032      0.00208995865        -65.3607779
                      0.868692288         97.7150147       0.0707817894        -10.5778306      0.00208995865        -65.3607779       0.0868387566         5.41615032
                     0.0868387566         5.41615032      0.00208995865        -65.3607779       0.0713391909        -10.4209718        0.867627469         97.7419621
                    0.00208995865        -65.3607779       0.0868387566         5.41615032        0.867627469         97.7419621       0.0713391909        -10.4209718

         160000000      0.0682914532        -25.1744986        0.865382681         80.5476865       0.0877871397         -9.8240522       0.0014230822        -126.324732
                      0.865382681         80.5476865       0.0682914532        -25.1744986       0.0014230822        -126.324732       0.0877871397         -9.8240522
                     0.0877871397         -9.8240522       0.0014230822        -126.324732       0.0689134464        -24.9855892        0.864339462          80.576732
                     0.0014230822        -126.324732       0.0877871397         -9.8240522        0.864339462          80.576732       0.0689134464        -24.9855892

         170000000      0.0593871024         -39.637534        0.862889133         63.3584639       0.0819432121        -25.0002627      0.00133771607         144.780056
                      0.862889133         63.3584639       0.0593871024         -39.637534      0.00133771607         144.780056       0.0819432121        -25.0002627
                     0.0819432121        -25.0002627      0.00133771607         144.780056       0.0600688351        -39.4065191        0.861871698         63.3895639
                    0.00133771607         144.780056       0.0819432121        -25.0002627        0.861871698         63.3895639       0.0600688351        -39.4065191

         180000000      0.0448990427        -53.3027321        0.860822066         46.1258071        0.069786701        -39.7509446      0.00226615267         75.6392948
                      0.860822066         46.1258071       0.0448990427        -53.3027321      0.00226615267         75.6392948        0.069786701        -39.7509446
                      0.069786701        -39.7509446      0.00226615267         75.6392948       0.0456307642         -53.014855        0.859835134         46.1587603
                    0.00226615267         75.6392948        0.069786701        -39.7509446        0.859835134         46.1587603       0.0456307642         -53.014855

         190000000      0.0262495093        -63.5345097        0.858684242         28.8454772       0.0524044004         -53.204971      0.00350814035         28.8484091
                      0.858684242         28.8454772       0.0262495093        -63.5345097      0.00350814035         28.8484091       0.0524044004         -53.204971
                     0.0524044004         -53.204971      0.00350814035         28.8484091         0.02701951        -63.2112625        0.857731857         28.8799237
                    0.00350814035         28.8484091       0.0524044004         -53.204971        0.857731857         28.8799237         0.02701951        -63.2112625

         200000000     0.00725145713        -36.1202738        0.856034567         11.5323674       0.0316254114        -62.1574473      0.00467763205        -10.3473491
                      0.856034567         11.5323674      0.00725145713        -36.1202738      0.00467763205        -10.3473491       0.0316254114        -62.1574473
                     0.0316254114        -62.1574473      0.00467763205        -10.3473491        0.007910121        -39.1703884        0.855118729         11.5678379
                    0.00467763205        -10.3473491       0.0316254114        -62.1574473        0.855118729         11.5678379        0.007910121        -39.1703884

         210000000      0.0191312724         52.5209094        0.852646911        -5.78457698       0.0119807362        -41.0183782      0.00557328031        -46.2364303
                      0.852646911        -5.78457698       0.0191312724         52.5209094      0.00557328031        -46.2364303       0.0119807362        -41.0183782
                     0.0119807362        -41.0183782      0.00557328031        -46.2364303       0.0185926595         51.0420127        0.851766559        -5.74856594
                    0.00557328031        -46.2364303       0.0119807362        -41.0183782        0.851766559        -5.74856594       0.0185926595         51.0420127

         220000000      0.0391267417         46.0376101        0.848592073        -23.0731891       0.0190660203         35.8219406      0.00606024247        -80.0714299
                      0.848592073        -23.0731891       0.0391267417         46.0376101      0.00606024247        -80.0714299       0.0190660203         35.8219406
                     0.0190660203         35.8219406      0.00606024247        -80.0714299       0.0385754033         45.5439166        0.847742921        -23.0370191
                    0.00606024247        -80.0714299       0.0190660203         35.8219406        0.847742921        -23.0370191       0.0385754033         45.5439166

         230000000      0.0559273445         32.8176652        0.844199851        -40.3101424       0.0384585018         36.1282231      0.00606179296        -112.122723
                      0.844199851        -40.3101424       0.0559273445         32.8176652      0.00606179296        -112.122723       0.0384585018         36.1282231
                     0.0384585018         36.1282231      0.00606179296        -112.122723       0.0554586714         32.5610047        0.843375265        -40.2739927
                    0.00606179296        -112.122723       0.0384585018         36.1282231        0.843375265        -40.2739927       0.0554586714         32.5610047

         240000000      0.0677111063         18.2230151        0.839923222        -57.4889356       0.0551260358          24.861405      0.00556279031        -142.070772
                      0.839923222        -57.4889356       0.0677111063         18.2230151      0.00556279031        -142.070772       0.0551260358          24.861405
                     0.0551260358          24.861405      0.00556279031        -142.070772       0.0673675866          18.070894        0.839115898         -57.452731
                    0.00556279031        -142.070772       0.0551260358          24.861405        0.839115898         -57.452731       0.0673675866          18.070894

         250000000      0.0734258291         3.26147984        0.836173515        -74.6210781       0.0670561568         11.1199448      0.00461599387        -168.678394
                      0.836173515        -74.6210781       0.0734258291         3.26147984      0.00461599387        -168.678394       0.0670561568         11.1199448
                     0.0670561568         11.1199448      0.00461599387        -168.678394       0.0732389117         3.16919198        0.835377462         -74.584502
                    0.00461599387        -168.678394       0.0670561568         11.1199448        0.835377462         -74.584502       0.0732389117         3.16919198

         260000000      0.0725969689        -11.7060716         0.83319119        -91.7312511       0.0733803883        -3.46443606      0.00337860023         171.935265
                       0.83319119        -91.7312511       0.0725969689        -11.7060716      0.00337860023         171.935265       0.0733803883        -3.46443606
                     0.0733803883        -3.46443606      0.00337860023         171.935265       0.0725913691        -11.7597051        0.832403475        -91.6938213
                    0.00337860023         171.935265       0.0733803883        -3.46443606        0.832403475        -91.6938213       0.0725913691        -11.7597051

         270000000      0.0652683165        -26.4164664        0.830982172        -108.849038        0.073769362        -18.3705874      0.00231841947         171.560033
                      0.830982172        -108.849038       0.0652683165        -26.4164664      0.00231841947         171.560033        0.073769362        -18.3705874
                      0.073769362        -18.3705874      0.00231841947         171.560033       0.0654620167        -26.4465954        0.830204024         -108.81023
                    0.00231841947         171.560033        0.073769362        -18.3705874        0.830204024         -108.81023       0.0654620167        -26.4465954

         280000000      0.0519801729        -40.3765235        0.829322676        -125.999771       0.0683696693        -33.3070076       0.0025526381        -170.487855
                      0.829322676        -125.999771       0.0519801729        -40.3765235       0.0025526381        -170.487855       0.0683696693        -33.3070076
                     0.0683696693        -33.3070076       0.0025526381        -170.487855       0.0523827808        -40.4069909        0.828559664        -125.959165
                     0.0025526381        -170.487855       0.0683696693        -33.3070076        0.828559664        -125.959165       0.0523827808        -40.4069909

         290000000      0.0338250341        -51.8462954        0.827827324        -143.196581       0.0578219577        -47.9226042      0.00401882031        -174.881978
                      0.827827324        -143.196581       0.0338250341        -51.8462954      0.00401882031        -174.881978       0.0578219577        -47.9226042
                     0.0578219577        -47.9226042      0.00401882031        -174.881978       0.0344326788        -51.9756556        0.827088432        -143.153996
                    0.00401882031        -174.881978       0.0578219577        -47.9226042        0.827088432        -143.153996       0.0344326788        -51.9756556

         300000000      0.0131532068        -47.0897651        0.826070453        -160.435771       0.0432819893         -61.468884      0.00572951857         165.473953
                      0.826070453        -160.435771       0.0131532068        -47.0897651      0.00572951857         165.473953       0.0432819893         -61.468884
                     0.0432819893         -61.468884      0.00572951857         165.473953       0.0138702443        -48.6926702        0.825366092        -160.391361
                    0.00572951857         165.473953       0.0432819893         -61.468884        0.825366092        -160.391361       0.0138702443        -48.6926702

         310000000      0.0145613909         54.8646139        0.823732344         -177.69759       0.0264332988        -71.4634356      0.00724660193         140.783931
                      0.823732344         -177.69759       0.0145613909         54.8646139      0.00724660193         140.783931       0.0264332988        -71.4634356
                     0.0264332988        -71.4634356      0.00724660193         140.783931       0.0137368277         52.6692076        0.823071671        -177.651852
                    0.00724660193         140.783931       0.0264332988        -71.4634356        0.823071671        -177.651852       0.0137368277         52.6692076

         320000000      0.0368269349         57.0786605        0.820717314         165.046953       0.0102126402         -60.309806      0.00835994976         114.547625
                      0.820717314         165.046953       0.0368269349         57.0786605      0.00835994976         114.547625       0.0102126402         -60.309806
                     0.0102126402         -60.309806      0.00835994976         114.547625       0.0357231656         56.6842633        0.820105628         165.093254
                    0.00835994976         114.547625       0.0102126402         -60.309806        0.820105628         165.093254       0.0357231656         56.6842633

         330000000      0.0576316952         45.3210967        0.817188038         147.825421       0.0115019659           25.88625      0.00896180207         88.2892698
                      0.817188038         147.825421       0.0576316952         45.3210967      0.00896180207         88.2892698       0.0115019659           25.88625
                     0.0115019659           25.88625      0.00896180207         88.2892698       0.0564022463         45.1721323        0.816625082         147.871407
                    0.00896180207         88.2892698       0.0115019659           25.88625        0.816625082         147.871407       0.0564022463         45.1721323

         340000000      0.0744286216         31.3225265        0.813497597         130.653927       0.0244503442         30.8384112      0.00903201431         63.0066952
                      0.813497597         130.653927       0.0744286216         31.3225265      0.00903201431         63.0066952       0.0244503442         30.8384112
                     0.0244503442         30.8384112      0.00903201431         63.0066952       0.0731284649         31.2626381        0.812977332         130.698797
                    0.00903201431         63.0066952       0.0244503442         30.8384112        0.812977332         130.698797       0.0731284649         31.2626381

         350000000      0.0857669135         16.7338009        0.810054186         113.531933       0.0345307591         20.9049837      0.00864030498         39.6661318
                      0.810054186         113.531933       0.0857669135         16.7338009      0.00864030498         39.6661318       0.0345307591         20.9049837
                     0.0345307591         20.9049837      0.00864030498         39.6661318       0.0844450607         16.7238495        0.809565996         113.575134
                    0.00864030498         39.6661318       0.0345307591         20.9049837        0.809565996         113.575134       0.0844450607         16.7238495

         360000000      0.0907765798         2.07157081        0.807180212         96.4433111       0.0401981291         8.44861367      0.00795535098         19.4255701
                      0.807180212         96.4433111       0.0907765798         2.07157081      0.00795535098         19.4255701       0.0401981291         8.44861367
                     0.0401981291         8.44861367      0.00795535098         19.4255701       0.0894809211         2.09914856        0.806711119         96.4846515
                    0.00795535098         19.4255701       0.0401981291         8.44861367        0.806711119         96.4846515       0.0894809211         2.09914856

         370000000      0.0891195564        -12.3795225        0.805014757         79.3623528       0.0410269824        -4.40675602      0.00725925646          3.4780021
                      0.805014757         79.3623528       0.0891195564        -12.3795225      0.00725925646          3.4780021       0.0410269824        -4.40675602
                     0.0410269824        -4.40675602      0.00725925646          3.4780021       0.0878973451        -12.3159365        0.804552036         79.4020402
                    0.00725925646          3.4780021       0.0410269824        -4.40675602        0.804552036         79.4020402       0.0878973451        -12.3159365

         380000000      0.0809701399        -26.2976436        0.803479488         62.2621838       0.0371248859        -16.5822881      0.00692142903        -8.18194767
                      0.803479488         62.2621838       0.0809701399        -26.2976436      0.00692142903        -8.18194767       0.0371248859        -16.5822881
                     0.0371248859        -16.5822881      0.00692142903        -8.18194767       0.0798680753        -26.1910115        0.803013195         62.3007818
                    0.00692142903        -8.18194767       0.0371248859        -16.5822881        0.803013195         62.3007818       0.0798680753        -26.1910115

         390000000      0.0670350034        -39.0399946        0.802308265         45.1231435        0.029135657        -26.3541512      0.00721745184        -18.5227173
                      0.802308265         45.1231435       0.0670350034        -39.0399946      0.00721745184        -18.5227173        0.029135657        -26.3541512
                      0.029135657        -26.3541512      0.00721745184        -18.5227173       0.0660993975        -38.8694793         0.80183325         45.1614553
                    0.00721745184        -18.5227173        0.029135657        -26.3541512         0.80183325         45.1614553       0.0660993975        -38.8694793

         400000000      0.0486683989        -48.8239299        0.801131753         27.9389765       0.0185610122        -27.9457986      0.00808601646        -31.5857057