! Tyco Electronics Strada Whisper System
! FEXT_C5C6-C8C9
!! 
!! SYSTEM DESCRIPTION: Daughtercard-Connector-Backplane-Connector-Daughtercard
!! PCB DESCRIPTION: BP: 250mil, 26 lyrs, Megtron6, bottom layer route, no stub, 6-9-6mil 17" traces; DC: 150mil, 16 lyrs, Megtron6, bottom layer route, no stub, 6-9-6mil 5" traces
!! CONNECTOR DESCRIPTION: STRADA Whisper, Right Angle Receptacle to Vertical Header
!! MODEL DESCRIPTION: Tyco Electronics System 4-port S-parameter 
!! MODEL STATUS: Developmental
!! MODEL GEOMETRY: Channel Model
!! MODEL FREQUENCY RANGE: DC to 40 GHz in 10 MHz frequency steps
!! MODEL EDGE RATE LIMITATION: 12.5 ps (Using conservative 0.5/Fmax rule of thumb)
!! 
!! TIME-DOMAIN TRANSFORM CAUTIONS: 
!! 1.) Do not simulate transient edge rates faster than the number listed above.  Edge rates faster than this number 
!!     contain significant spectral content at frequencies above the model's highest frequency. 
!! 2.) Even when simulating edge rates that are slower than the number listed above, be aware that the best time 
!!     resolution possible with a direct iFFT is (1 / 2Fmax).  As a result, time resolution is typically not adequate 
!!     for most time-domain simulations unless tricks such as windowing are used to minimize leakage and aliasing. 
!! 3.) Because the model has a uniform frequency step, a direct iFFT will result in an impulse that that has a time 
!!     length given by either (1 / Fstep) or (1 / 2Fstep), depending on the transform being used.  Care has been taken 
!!     in selecting the frequency step to ensure a settled impulse response for the model.  Therefore, convolution with 
!!     the model's impulse response should present no issues.  However, if directly concatenating s-parameter models 
!!     in the frequency domain a user must either interpolate necessary interim frequencies or complete impulse response 
!!     zero-padding.  Impulse response zero-padding is more difficult, but more accurate. 
!! 
!! PORT DEFINITIONS: 
!! Port   1  ----->  Side A     C8            C5     Side B  <-----  Port   2
!! Port   3  ----->  Side A     C9            C6     Side B  <-----  Port   4
!! 
!!!!!!!!!!!!!!!!!!!!!!!!!!!!!!!!!!!!!!!!!!!!!!!!!!!!!!!!!!!!!!!!!!!!!!!!!!!!!!!!!!!!!!!!!!!!!!!!!!!!!!!!!!!!!!!!!!!!!!!!
!
! Created Wed Apr 27 14:19:00 2011
# hz S ma R 50
! 4 Port Network Data from SP1.SP block
! freq  magS11  angS11  magS12  angS12  magS13  angS13  magS14  angS14  
!       magS21  angS21  magS22  angS22  magS23  angS23  magS24  angS24  
!       magS31  angS31  magS32  angS32  magS33  angS33  magS34  angS34  
!       magS41  angS41  magS42  angS42  magS43  angS43  magS44  angS44  
!     
                 0      0.0298647011   -3.06048185e-031     2.0582279e-006                180      0.00346246926   -1.09394254e-030     6.0121198e-006                180
                   2.0582279e-006                180       0.0298659963   -4.51048069e-032    1.04003433e-006                180      0.00346289958   -1.04420125e-030
                    0.00346246926   -1.09394254e-030    1.04003433e-006                180        0.029890722   -5.25141677e-032    2.30441563e-006                180
                   6.0121198e-006                180      0.00346289958   -1.04420124e-030    2.30441563e-006                180       0.0298908931    -3.2472033e-031

          10000000      0.0634715066         20.3269904    4.76367277e-006        -141.634932       0.0254678532         62.7594611    2.31693645e-005        -129.062013
                  4.76367277e-006        -141.634932       0.0634437372         20.3074251    1.29441672e-006        -155.942151        0.025474111         62.8210986
                     0.0254678532         62.7594611    1.29441672e-006        -155.942151       0.0633817945         20.3331417    5.06421305e-006        -143.059946
                  2.31693645e-005        -129.062013        0.025474111         62.8210986    5.06421305e-006        -143.059946       0.0632619081         20.4661144

          20000000      0.0833709209         13.4715468    8.13369089e-006        -150.541202       0.0472770846         49.8061101    4.30249741e-005        -138.428076
                  8.13369089e-006        -150.541202       0.0833169565         13.4544738    1.97897446e-006         -163.36063       0.0472954426         49.8303755
                     0.0472770846         49.8061101    1.97897446e-006         -163.36063       0.0832482096         13.4937769    8.57007395e-006        -151.220581
                  4.30249741e-005        -138.428076       0.0472954426         49.8303755    8.57007395e-006        -151.220581       0.0832020248         13.5976285

          30000000      0.0965664467         2.52224774    1.09634875e-005        -165.533829       0.0643781912         34.3677696    6.20022166e-005        -152.819172
                  1.09634875e-005        -165.533829       0.0964919412          2.5092885    2.50411871e-006         -178.21321       0.0644032931         34.3761177
                     0.0643781912         34.3677696    2.50411871e-006         -178.21321       0.0964174291         2.55994626    1.15506897e-005        -165.840907
                  6.20022166e-005        -152.819172       0.0644032931         34.3761177    1.15506897e-005        -165.840907       0.0964200906         2.63140274

          40000000       0.102643758        -10.1075149    1.32348729e-005          179.56956       0.0753534374         18.4717234    8.03197228e-005        -168.056671
                  1.32348729e-005          179.56956        0.102555727        -10.1158172    2.83228859e-006         167.207531       0.0753808135         18.4697334
                     0.0753534374         18.4717234    2.83228859e-006         167.207531        0.102474337        -10.0534011    1.39729339e-005         179.430286
                  8.03197228e-005        -168.056671       0.0753808135         18.4697334    1.39729339e-005         179.430286         0.10250481        -10.0120742

          50000000       0.101408358        -23.5401767    1.52923977e-005         166.168285       0.0793350389         2.53826896    9.86976673e-005         176.528567
                  1.52923977e-005         166.168285        0.101314831        -23.5433112    3.06506972e-006         155.636745       0.0793605434         2.52794166
                     0.0793350389         2.53826896    3.06506972e-006         155.636745         0.10122339        -23.4674734    1.61841559e-005         166.033337
                  9.86976673e-005         176.528567       0.0793605434         2.52794166    1.61841559e-005         166.033337        0.101262648        -23.4551641

          60000000      0.0930867524        -37.3129856    1.76943023e-005         153.911927       0.0759947303        -13.2062535     0.000117914684         160.904004
                  1.76943023e-005         153.911927       0.0929962931        -37.3101315    3.41335719e-006          147.14199       0.0760147762        -13.2244375
                     0.0759947303        -13.2062535    3.41335719e-006          147.14199       0.0928895352         -37.217427    1.87457104e-005         153.660861
                   0.000117914684         160.904004       0.0760147762        -13.2244375    1.87457104e-005         153.660861       0.0929207616        -37.2352709

          70000000      0.0783656643        -50.9918784    2.09527207e-005         141.268398       0.0655966702        -28.4019777     0.000138480628         144.849463
                  2.09527207e-005         141.268398       0.0782868663        -50.9814178    4.09921346e-006         138.433541       0.0656085322         -28.428774
                     0.0655966702        -28.4019777    4.09921346e-006         138.433541        0.078157759        -50.8643611    2.21706105e-005         140.882313
                   0.000138480628         144.849463       0.0656085322         -28.428774    2.21706105e-005         140.882313       0.0781669292        -50.9171334

          80000000      0.0584593238        -63.7412194    2.52219591e-005         126.685786       0.0490888141        -42.0632614     0.000160386863         128.171011
                  2.52219591e-005         126.685786       0.0584004677        -63.7193985    5.17854759e-006         125.746516        0.049090794        -42.1015426
                     0.0490888141        -42.0632614    5.17854759e-006         125.746516       0.0582415433        -63.5578664    2.66151051e-005         126.241103
                   0.000160386863         128.171011        0.049090794        -42.1015426    2.66151051e-005         126.241103       0.0582175197        -63.6580363

          90000000      0.0352741209        -72.6736432    3.02086048e-005         109.618046       0.0283339559        -50.0118839     0.000183029673         110.810469
                  3.02086048e-005         109.618046       0.0352435351        -72.6296642    6.50706667e-006         108.349125       0.0283245679         -50.070568
                     0.0283339559        -50.0118839    6.50706667e-006         108.349125       0.0350534832        -72.3406028     3.1785888e-005         109.209751
                   0.000183029673         110.810469       0.0283245679         -50.070568     3.1785888e-005         109.209751       0.0349850572        -72.5208901

         100000000       0.013154616        -55.0917275    3.53393096e-005         90.4454901       0.0101146614        -10.2147825     0.000205367123         92.8696388
                  3.53393096e-005         90.4454901       0.0131651412        -55.0121408    7.85164649e-006         87.5359906       0.0100893458        -10.2268872
                     0.0101146614        -10.2147825    7.85164649e-006         87.5359906       0.0130444658        -53.7852183    3.71027728e-005         90.1383853
                   0.000205367123         92.8696388       0.0100893458        -10.2268872    3.71027728e-005         90.1383853        0.012904497        -53.9468655

         110000000      0.0190327042         27.1601077    3.99955267e-005          69.914266       0.0244960648         52.5720454     0.000226260774         74.5691536
                  3.99955267e-005          69.914266       0.0190211591         27.0695849    8.98964348e-006         64.8551917       0.0244938585          52.612879
                     0.0244960648         52.5720454    8.98964348e-006         64.8551917        0.019356152         27.5290776    4.19353293e-005         69.7408913
                   0.000226260774         74.5691536       0.0244938585          52.612879    4.19353293e-005         69.7408913       0.0193572388         27.9676603

         120000000      0.0391546732          28.443693    4.36881256e-005         48.7668539       0.0464225182         47.5705204     0.000244847392         56.1782901
                  4.36881256e-005         48.7668539       0.0391010448         28.3987176    9.76726541e-006         41.5465283       0.0464229584          47.579826
                     0.0464225182         47.5705204    9.76726541e-006         41.5465283       0.0395350498         28.5629991    4.57833134e-005         48.7398057
                   0.000244847392         56.1782901       0.0464229584          47.579826    4.57833134e-005         48.7398057       0.0395910895         28.7492063

         130000000       0.055710813         17.3645877    4.61377162e-005         27.6160794       0.0653163043          34.914008     0.000260778233         37.9504695
                  4.61377162e-005         27.6160794       0.0556213296         17.3377238    1.01235519e-005         18.5182958       0.0653115109         34.9116213
                     0.0653163043          34.914008    1.01235519e-005         18.5182958       0.0561439434         17.4782412    4.83613831e-005         27.7376211
                   0.000260778233         37.9504695       0.0653115109         34.9116213    4.83613831e-005         27.7376211       0.0562109232         17.5823133

         140000000      0.0665272128         3.78772121    4.72738437e-005         6.94809844       0.0791595353         20.4650074     0.000274266972         20.0825068
                  4.72738437e-005         6.94809844       0.0664058404         3.77119934    1.00811489e-005        -3.57052606       0.0791449146         20.4568633
                     0.0791595353         20.4650074    1.00811489e-005        -3.57052606       0.0670202497         3.91930334    4.95998836e-005         7.21424717
                   0.000274266972         20.0825068       0.0791449146         20.4568633    4.95998836e-005         7.21424717       0.0670797084         3.98310257

         150000000      0.0707817962         -10.577828    4.71993404e-005        -12.8194517        0.086838764         5.41615117     0.000286001812          2.6965193
                  4.71993404e-005        -12.8194517        0.070633181        -10.5864789    9.71731982e-006        -24.2060994       0.0868112723         5.40504777
                      0.086838764         5.41615117    9.71731982e-006        -24.2060994       0.0713391977        -10.4209692    4.96089589e-005         -12.420215
                   0.000286001812          2.6965193       0.0868112723         5.40504777    4.96089589e-005         -12.420215       0.0713783245         -10.381329

         160000000      0.0682914606        -25.1744979    4.61728965e-005          -31.27028        0.087787147        -9.82405296     0.000297007544        -14.1674264
                  4.61728965e-005          -31.27028       0.0681211857        -25.1754046    9.13849983e-006        -42.8939715       0.0877452098        -9.83612806
                      0.087787147        -9.82405296    9.13849983e-006        -42.8939715       0.0689134538        -24.9855885     4.8660108e-005        -30.7644003
                   0.000297007544        -14.1674264       0.0877452098        -9.83612806     4.8660108e-005        -30.7644003       0.0689229325        -24.9615231

         170000000      0.0593871096        -39.6375357    4.46358552e-005         -47.973265       0.0819432187        -25.0002651     0.000308491361        -30.5581976
                  4.46358552e-005         -47.973265       0.0592017556        -39.6282046    8.47862582e-006        -59.0560528       0.0818869455        -25.0111272
                     0.0819432187        -25.0002651    8.47862582e-006        -59.0560528       0.0600688423        -39.4065208    4.72107396e-005        -47.4160557
                   0.000308491361        -30.5581976       0.0818869455        -25.0111272    4.72107396e-005        -47.4160557       0.0600428444        -39.3913352

         180000000      0.0448990488        -53.3027375    4.32517632e-005        -62.6202357       0.0697867059        -39.7509492      0.00032164192        -46.6178301
                  4.32517632e-005        -62.6202357       0.0447064796        -53.2734909    7.92162632e-006        -72.1704663       0.0697182319        -39.7570379
                     0.0697867059        -39.7509492    7.92162632e-006        -72.1704663       0.0456307704        -53.0148603    4.59380749e-005        -62.1090479
                    0.00032164192        -46.6178301       0.0697182319        -39.7570379    4.59380749e-005        -62.1090479       0.0455675581        -52.9985992

         190000000      0.0262495131        -63.5345236    4.28452603e-005        -75.3949079        0.052404403        -53.2049786     0.000337349537        -62.5660235
                  4.28452603e-005        -75.3949079       0.0260607672        -63.4337172    7.70144061e-006         -82.529694       0.0523283541         -53.198026
                      0.052404403        -53.2049786    7.70144061e-006         -82.529694       0.0270195138         -63.211276    4.56691942e-005        -75.0542547
                   0.000337349537        -62.5660235       0.0523283541         -53.198026    4.56691942e-005        -75.0542547       0.0269233157        -63.1558863

         200000000     0.00725145331        -36.1203239    4.41110277e-005        -87.3061092       0.0316254107        -62.1574606     0.000355907473        -78.6485165
                  4.41110277e-005        -87.3061092       0.0071539013        -34.8599361    7.99632797e-006        -92.1098013       0.0315506866        -62.1064437
                     0.0316254107        -62.1574606    7.99632797e-006        -92.1098013      0.00791011754        -39.1704357    4.70882692e-005        -87.2205721
                   0.000355907473        -78.6485165       0.0315506866        -62.1064437    4.70882692e-005        -87.2205721      0.00784069243        -38.3755876

         210000000      0.0191312692         52.5209292    4.72167471e-005        -99.8238427       0.0119807298        -41.0183952      0.00037686227        -95.0613917
                  4.72167471e-005        -99.8238427       0.0192927266         52.6736349    8.77184883e-006        -103.496088       0.0119499691        -40.6700024
                     0.0119807298        -41.0183952    8.77184883e-006        -103.496088       0.0185926561         51.0420329    5.03528918e-005         -99.977085
                    0.00037686227        -95.0613917       0.0119499691        -40.6700024    5.03528918e-005         -99.977085       0.0187395407         51.1482084

         220000000      0.0391267421         46.0376207    5.17203657e-005        -113.947286       0.0190660194         35.8219622     0.000399147846        -111.893952
                  5.17203657e-005        -113.947286       0.0392700086         46.0727654     9.8020322e-006        -117.700907       0.0191386073         35.8624614
                     0.0190660194         35.8219622     9.8020322e-006        -117.700907       0.0385754036         45.5439273    5.50196828e-005        -114.250628
                   0.000399147846        -111.893952       0.0191386073         35.8624614    5.50196828e-005        -114.250628       0.0387377701          45.540192

         230000000      0.0559273474         32.8176719    5.68925922e-005        -129.822977       0.0384585051         36.1282326     0.000421442386        -129.122873
                  5.68925922e-005        -129.822977       0.0560410701         32.8393895    1.08463975e-005        -134.121023       0.0385208321         36.1008995
                     0.0384585051         36.1282326    1.08463975e-005        -134.121023       0.0554586743         32.5610114    6.03584592e-005        -130.184149
                   0.000421442386        -129.122873       0.0385208321         36.1008995    6.03584592e-005        -130.184149       0.0556206231          32.538858

         240000000      0.0677111112         18.2230194    6.20586124e-005        -147.093697       0.0551260412         24.8614097     0.000442535129        -146.648342
                  6.20586124e-005        -147.093697       0.0677905866         18.2448728    1.17664389e-005        -151.737527       0.0551704034         24.8303455
                     0.0551260412         24.8614097    1.17664389e-005        -151.737527       0.0673675915         18.0708983     6.5688245e-005          -147.4485
                   0.000442535129        -146.648342       0.0551704034         24.8303455     6.5688245e-005          -147.4485       0.0675181636         18.0425784

         250000000      0.0734258354          3.2614823    6.67207812e-005        -165.303024       0.0670561634         11.1199468     0.000461539139        -164.338434
                  6.67207812e-005        -165.303024       0.0734684412         3.28798389      1.253148e-005        -169.811354       0.0670802892         11.0915469
                     0.0670561634         11.1199468      1.253148e-005        -169.811354       0.0732389179         3.16919446    7.05030503e-005        -165.613233
                   0.000461539139        -164.338434       0.0670802892         11.0915469    7.05030503e-005        -165.613233       0.0733690672         3.13870269

         260000000      0.0725969758        -11.7060709    7.05263709e-005         175.942947       0.0733803952         -3.4644361     0.000477945752           177.9424
                  7.05263709e-005         175.942947       0.0726014418        -11.6715053    1.31640707e-005         171.979674        0.073383571        -3.48844652
                     0.0733803952         -3.4644361    1.31640707e-005         171.979674        0.072591376        -11.7597044    7.44436724e-005         175.699222
                   0.000477945752           177.9424        0.073383571        -3.48844652    7.44436724e-005         175.699222       0.0726939776        -11.7899141

         270000000      0.0652683233        -26.4164676    7.32114005e-005          156.98304       0.0737693685        -18.3705892     0.000491620728         160.323586
                  7.32114005e-005          156.98304       0.0652344973        -26.3686144    1.36740791e-005         153.678094       0.0737521161        -18.3887234
                     0.0737693685        -18.3705892    1.36740791e-005         153.678094       0.0654620235        -26.4465966    7.72433331e-005         156.817086
                   0.000491620728         160.323586       0.0737521161        -18.3887234    7.72433331e-005         156.817086       0.0655320186        -26.4736429

         280000000      0.0519801787        -40.3765275    7.46016561e-005         138.165519       0.0683696747        -33.3070113     0.000502838934         142.926826
                  7.46016561e-005         138.165519       0.0519094195        -40.3031845    1.40231407e-005         135.305196        0.068333765        -33.3167134
                     0.0683696747        -33.3070113    1.40231407e-005         135.305196       0.0523827866        -40.4069949    7.87293733e-005         138.078232
                   0.000502838934         142.926826        0.068333765        -33.3167134    7.87293733e-005         138.078232       0.0524175609        -40.4251209

         290000000      0.0338250381         -51.846305    7.46947442e-005         119.902083       0.0578219613        -47.9226101     0.000512378336          125.85832
                  7.46947442e-005         119.902083       0.0337226355        -51.7041681    1.41448905e-005         117.098318       0.0577706489        -47.9185249
                     0.0578219613        -47.9226101    1.41448905e-005         117.098318       0.0344326828        -51.9756649    7.89058759e-005         119.879472
                   0.000512378336          125.85832       0.0577706489        -47.9185249    7.89058759e-005         119.879472        0.034433327        -51.9664912

         300000000      0.0131532063        -47.0897951    7.37953441e-005         102.662688       0.0432819905         -61.468893     0.000521589338         109.184596
                  7.37953441e-005         102.662688       0.0130579368        -46.4945899    1.40126416e-005         99.5983845       0.0432205324        -61.4378263
                     0.0432819905         -61.468893    1.40126416e-005         99.5983845        0.013870244        -48.6926986    7.80886331e-005         102.668314
                   0.000521589338         109.184596       0.0432205324        -61.4378263    7.80886331e-005         102.668314       0.0138532988        -48.5189553

         310000000      0.0145613866         54.8646349    7.26202377e-005         86.8570014       0.0264332971        -71.4634501     0.000532281538         92.8950707
                  7.26202377e-005         86.8570014       0.0147543695         55.0131649    1.37137137e-005         83.5211792       0.0263710257        -71.3605595
                     0.0264332971        -71.4634501    1.37137137e-005         83.5211792       0.0137368232          52.669229    7.70068196e-005         86.8267344
                   0.000532281538         92.8950707       0.0263710257        -71.3605595    7.70068196e-005         86.8267344       0.0138218044         52.6368903

         320000000      0.0368269346         57.0786711    7.22415365e-005         72.5729592       0.0102126343        -60.3098249     0.000546321409         76.8745445
                  7.22415365e-005         72.5729592       0.0370491685         57.0568717    1.34760187e-005         69.3742541       0.0101870849        -59.8396713
                     0.0102126343        -60.3098249    1.34760187e-005         69.3742541       0.0357231653         56.6842742     7.6739538e-005         72.4254483
                   0.000546321409         76.8745445       0.0101870849        -59.8396713     7.6739538e-005         72.4254483       0.0358313248         56.5976579

         330000000      0.0576316976         45.3211029    7.37631952e-005         59.3045583        0.011501966         25.8862836     0.000565045517         60.9168003
                  7.37631952e-005         59.3045583       0.0578746302         45.3018754    1.36026603e-005         56.9040203       0.0115946279          25.870207
                      0.011501966         25.8862836    1.36026603e-005         56.9040203       0.0564022486         45.1721387    7.83892557e-005         58.9790687
                   0.000565045517         60.9168003       0.0115946279          25.870207    7.83892557e-005         58.9790687       0.0565290789         45.0908469

         340000000      0.0744286259         31.3225303    7.78335405e-005         46.0245649       0.0244503486         30.8384231     0.000588793925         44.7852786
                  7.78335405e-005         46.0245649       0.0746882153         31.3115965     1.4325998e-005         44.8943586       0.0245324759         30.7329845
                     0.0244503486         30.8384231     1.4325998e-005         44.8943586       0.0731284693         31.2626421    8.26020622e-005         45.5227366
                   0.000588793925         44.7852786       0.0245324759         30.7329845    8.26020622e-005         45.5227366       0.0732689209         31.1857147

         350000000      0.0857669193         16.7338031    8.43568305e-005         31.7167056        0.034530765         20.9049883     0.000616808191         28.2863149
                  8.43568305e-005         31.7167056       0.0860388261         16.7307118    1.56917085e-005         31.8447692       0.0346006883         20.8093013
                      0.034530765         20.9049883    1.56917085e-005         31.8447692       0.0844450664         16.7238516    8.92864354e-005         31.1001982
                   0.000616808191         28.2863149       0.0346006883         20.8093013    8.92864354e-005         31.1001982       0.0845943395         16.6498611

         360000000      0.0907765862         2.07157151    9.26191152e-005         15.8519955       0.0401981356         8.44861422     0.000647460349          11.313263
                  9.26191152e-005         15.8519955       0.0910563016         2.07559757    1.75720368e-005         16.8514466       0.0402560157         8.36132569
                     0.0401981356         8.44861422    1.75720368e-005         16.8514466       0.0894809276         2.09914927    9.77322386e-005         15.2012062
                   0.000647460349          11.313263       0.0402560157         8.36132569    9.77322386e-005         15.2012062       0.0896351096         2.02696415

         370000000      0.0891195628        -12.3795232     0.000101604873         -1.5883915       0.0410269886         -4.4067588     0.000678602544        -6.14795857
                   0.000101604873         -1.5883915       0.0894021937        -12.3690396    1.97453744e-005       -0.248212514       0.0410733026         -4.4896739
                     0.0410269886         -4.4067588    1.97453744e-005       -0.248212514       0.0878973515        -12.3159372     0.000106918011        -2.20723841
                   0.000678602544        -6.14795857       0.0410733026         -4.4896739     0.000106918011        -2.20723841       0.0880534732        -12.3875505

         380000000      0.0809701455        -26.2976459     0.000110230509        -20.3282324       0.0371248909        -16.5822945      0.00070789646        -24.0332636
                   0.000110230509        -20.3282324       0.0812501175         -26.281652    2.19433715e-005        -19.1895106       0.0371603878        -16.6655379
                     0.0371248909        -16.5822945    2.19433715e-005        -19.1895106       0.0798680809        -26.1910139     0.000115744726        -20.8716528
                    0.00070789646        -24.0332636       0.0371603878        -16.6655379     0.000115744726        -20.8716528       0.0800239022         -26.264048

         390000000      0.0670350074         -39.039999     0.000117477987        -39.9615799       0.0291356598        -26.3541627     0.000733139546        -42.2162381
                   0.000117477987        -39.9615799       0.0673059121        -39.0212004    2.38702063e-005        -39.5101351       0.0291607494         -26.445784
                     0.0291356598        -26.3541627    2.38702063e-005        -39.5101351       0.0660994015        -38.8694837     0.000123175758        -40.4054253
                   0.000733139546        -42.2162381       0.0291607494         -26.445784     0.000123175758        -40.4054253       0.0662529808        -38.9485507

         400000000      0.0486684004        -48.8239373     0.000122532283        -60.0155752       0.0185610114        -27.9458185     0.000752666122         -60.521585